Siesta Version  : 4.1.5
Architecture    : unknown
Compiler version: GNU Fortran (conda-forge gcc 12.3.0-5) 12.3.0
Compiler flags  : x86_64-conda-linux-gnu-gfortran -march=nocona -mtune=haswell -ftree-vectorizee -fPIC -fstack-protector-strong -fno-plt -O2 -ffunction-sections -pipe  -fallow-argument-mismatch
PP flags        : -DFC_HAVE_ABORT -DCDF -DNCDF -DNCDF_4
Libraries       : libncdf.a libfdict.a -llapack -lblas -lnetcdff -lnetcdf -lhdf5_hl -lhdf5 -lz
SERIAL version
NetCDF support
NetCDF-4 support

* Running in serial mode
>> Start of run:  18-MAR-2024  15:46:08

                           ***********************       
                           *  WELCOME TO SIESTA  *       
                           ***********************       

reinit: Reading from xoc.fdf

reinit: -----------------------------------------------------------------------
reinit: System Name: H2 + O2 -> H2O2 reaction
reinit: -----------------------------------------------------------------------
reinit: System Label: xoc
reinit: -----------------------------------------------------------------------

initatom: Reading input for the pseudopotentials and atomic orbitals ----------
Species number:   1 Atomic number:    8 Label: O
Species number:   2 Atomic number:    1 Label: H

Ground state valence configuration:   2s02  2p04
Reading pseudopotential information in formatted form from O.psf

Pseudopotential generated from a relativistic atomic calculation

Valence configuration for pseudopotential generation:
2s( 2.00) rc: 1.14
2p( 4.00) rc: 1.14
3d( 0.00) rc: 1.14
4f( 0.00) rc: 1.14
Ground state valence configuration:   1s01
Reading pseudopotential information in unformatted form from H.vps

Valence configuration for pseudopotential generation:
1s( 1.00) rc: 1.25
2p( 0.00) rc: 1.25
3d( 0.00) rc: 1.25
4f( 0.00) rc: 1.25
For O, standard SIESTA heuristics set lmxkb to 3
 (one more than the basis l, including polarization orbitals).
Use PS.lmax or PS.KBprojectors blocks to override.
For H, standard SIESTA heuristics set lmxkb to 2
 (one more than the basis l, including polarization orbitals).
Use PS.lmax or PS.KBprojectors blocks to override.

<basis_specs>
===============================================================================
O                    Z=   8    Mass=  16.000        Charge=-0.18518    
Lmxo=2 Lmxkb= 3    BasisType=split      Semic=F
L=0  Nsemic=0  Cnfigmx=2
          i=1  nzeta=2  polorb=0  (2s)
            splnorm:   0.15000    
               vcte:    87.074    
               rinn:    4.7393    
               qcoe:    0.0000    
               qyuk:    0.0000    
               qwid:   0.10000E-01
                rcs:    7.3294      4.6037    
            lambdas:    1.0000      1.0000    
L=1  Nsemic=0  Cnfigmx=2
          i=1  nzeta=2  polorb=0  (2p)
            splnorm:   0.15000    
               vcte:    68.296    
               rinn:    4.9704    
               qcoe:    0.0000    
               qyuk:    0.0000    
               qwid:   0.10000E-01
                rcs:    6.6025      3.0467    
            lambdas:    1.0000      1.0000    
L=2  Nsemic=0  Cnfigmx=3
          i=1  nzeta=1  polorb=0  (3d)
            splnorm:   0.15000    
               vcte:    91.071    
               rinn:    3.9512    
               qcoe:    0.0000    
               qyuk:    0.0000    
               qwid:   0.10000E-01
                rcs:    6.8934    
            lambdas:    1.0000    
-------------------------------------------------------------------------------
L=0  Nkbl=1  erefs: 0.17977+309
L=1  Nkbl=1  erefs: 0.17977+309
L=2  Nkbl=1  erefs: 0.17977+309
L=3  Nkbl=1  erefs: 0.17977+309
===============================================================================
</basis_specs>

atom: Called for O                     (Z =   8)

read_vps: Pseudopotential generation method:
read_vps: ATM3      Troullier-Martins                       
Valence charge for ps generation:    6.00000

read_vps: Pseudopotential includes a core correction:
read_vps: Pseudo-core for xc-correction

xc_check: Exchange-correlation functional:
xc_check: GGA Perdew, Burke & Ernzerhof 1996
V l=0 = -2*Zval/r beyond r=  1.1278
V l=1 = -2*Zval/r beyond r=  1.1278
V l=2 = -2*Zval/r beyond r=  1.1278
V l=3 = -2*Zval/r beyond r=  1.1278
All V_l potentials equal beyond r=  1.1278
This should be close to max(r_c) in ps generation
All pots = -2*Zval/r beyond r=  1.1278

VLOCAL1: 99.0% of the norm of Vloc inside     34.126 Ry
VLOCAL1: 99.9% of the norm of Vloc inside     77.774 Ry
atom: Maximum radius for 4*pi*r*r*local-pseudopot. charge    1.37759
atom: Maximum radius for r*vlocal+2*Zval:    1.18566
GHOST: No ghost state for L =  0
GHOST: No ghost state for L =  1
GHOST: No ghost state for L =  2
GHOST: No ghost state for L =  3

KBgen: Kleinman-Bylander projectors: 
   l= 0   rc=  1.360471   el= -1.759790   Ekb=  9.210761   kbcos=  0.328866
   l= 1   rc=  1.360471   el= -0.663797   Ekb= -7.921990   kbcos= -0.392961
   l= 2   rc=  1.791199   el=  0.002031   Ekb= -1.950550   kbcos= -0.003498
   l= 3   rc=  2.107308   el=  0.003153   Ekb= -0.856060   kbcos= -0.000334

KBgen: Total number of Kleinman-Bylander projectors:   16
atom: -------------------------------------------------------------------------

atom: SANKEY-TYPE ORBITALS:
atom: Selected multiple-zeta basis: split     

atom: basis set generated (by rescaling the valence charge)
atom: for an anion of charge  -0.1852

SPLIT: Orbitals with angular momentum L= 0

SPLIT: Basis orbitals for state 2s

   izeta = 1
                 lambda =    1.000000
                     rc =    7.356000
                 energy =   -1.758588
                kinetic =    1.491851
    potential(screened) =   -3.250439
       potential(ionic) =  -11.062471

   izeta = 2
                 rmatch =    4.690281
              splitnorm =    0.003309
                 energy =   -1.757602
* WARNING: effective split_norm is quite small. Orbitals will be very similar.
                kinetic =    1.574378
    potential(screened) =   -3.331980
       potential(ionic) =  -11.238433

SPLIT: Orbitals with angular momentum L= 1

SPLIT: Basis orbitals for state 2p

   izeta = 1
                 lambda =    1.000000
                     rc =    6.655955
                 energy =   -0.659921
                kinetic =    4.410674
    potential(screened) =   -5.070596
       potential(ionic) =  -12.498772

   izeta = 2
                 rmatch =    3.066256
              splitnorm =    0.127283
                 energy =   -0.537509
                kinetic =    6.271972
    potential(screened) =   -6.809481
       potential(ionic) =  -15.130217

SPLIT: Orbitals with angular momentum L= 2

SPLIT: Basis orbitals for state 3d

   izeta = 1
                 lambda =    1.000000
                     rc =    6.997229
                 energy =    0.764795
                kinetic =    1.136799
    potential(screened) =   -0.372004
       potential(ionic) =   -3.984199
atom: Total number of Sankey-type orbitals: 13

atm_pop: Valence configuration (for local Pseudopot. screening):
 2s( 2.00)                                                            
 2p( 4.00)                                                            
 3d( 0.00)                                                            
Vna: chval, zval:    6.00000   6.00000

Vna:  Cut-off radius for the neutral-atom potential:   7.356000
comcore: Pseudo-core radius Rcore=  1.377587

atom: _________________________________________________________________________

<basis_specs>
===============================================================================
H                    Z=   1    Mass=  1.0100        Charge= 0.22000    
Lmxo=1 Lmxkb= 2    BasisType=split      Semic=F
L=0  Nsemic=0  Cnfigmx=1
          i=1  nzeta=2  polorb=0  (1s)
            splnorm:   0.15000    
               vcte:    2.0700    
               rinn:    0.0000    
               qcoe:    0.0000    
               qyuk:    0.0000    
               qwid:   0.10000E-01
                rcs:    4.9710      1.7710    
            lambdas:    1.0000      1.0000    
L=1  Nsemic=0  Cnfigmx=2
          i=1  nzeta=1  polorb=0  (2p)
            splnorm:   0.15000    
               vcte:   0.89000    
               rinn:   0.10000E-01
               qcoe:    0.0000    
               qyuk:    0.0000    
               qwid:   0.10000E-01
                rcs:    4.9880    
            lambdas:    1.0000    
-------------------------------------------------------------------------------
L=0  Nkbl=1  erefs: 0.17977+309
L=1  Nkbl=1  erefs: 0.17977+309
L=2  Nkbl=1  erefs: 0.17977+309
===============================================================================
</basis_specs>

atom: Called for H                     (Z =   1)

read_vps: Pseudopotential generation method:
read_vps: ATM3      Troullier-Martins                       
Valence charge for ps generation:    1.00000

xc_check: Exchange-correlation functional:
xc_check: GGA Perdew, Burke & Ernzerhof 1996
V l=0 = -2*Zval/r beyond r=  1.2343
V l=1 = -2*Zval/r beyond r=  1.2189
V l=2 = -2*Zval/r beyond r=  1.2189
All V_l potentials equal beyond r=  1.2343
This should be close to max(r_c) in ps generation
All pots = -2*Zval/r beyond r=  1.2343

VLOCAL1: 99.0% of the norm of Vloc inside     28.493 Ry
VLOCAL1: 99.9% of the norm of Vloc inside     64.935 Ry
atom: Maximum radius for 4*pi*r*r*local-pseudopot. charge    1.45251
atom: Maximum radius for r*vlocal+2*Zval:    1.21892
GHOST: No ghost state for L =  0
GHOST: No ghost state for L =  1
GHOST: No ghost state for L =  2

KBgen: Kleinman-Bylander projectors: 
   l= 0   rc=  1.364359   el= -0.477200   Ekb= -2.021939   kbcos= -0.344793
   l= 1   rc=  1.434438   el=  0.001076   Ekb= -0.443447   kbcos= -0.022843
   l= 2   rc=  1.470814   el=  0.002010   Ekb= -0.140543   kbcos= -0.002863

KBgen: Total number of Kleinman-Bylander projectors:    9
atom: -------------------------------------------------------------------------

atom: SANKEY-TYPE ORBITALS:
atom: Selected multiple-zeta basis: split     

atom: basis set generated (by rescaling the valence charge)
atom: for a cation of charge   0.2200

SPLIT: Orbitals with angular momentum L= 0

SPLIT: Basis orbitals for state 1s

   izeta = 1
                 lambda =    1.000000
                     rc =    4.950554
                 energy =   -0.678603
                kinetic =    1.118239
    potential(screened) =   -1.796842
       potential(ionic) =   -2.106311

   izeta = 2
                 rmatch =    1.774652
              splitnorm =    0.672347
                 energy =    1.027037
                kinetic =    4.730146
    potential(screened) =   -3.703109
       potential(ionic) =   -3.968059

SPLIT: Orbitals with angular momentum L= 1

SPLIT: Basis orbitals for state 2p

   izeta = 1
                 lambda =    1.000000
                     rc =    5.075940
                 energy =    0.310352
                kinetic =    0.887169
    potential(screened) =   -0.576817
       potential(ionic) =   -0.872649
atom: Total number of Sankey-type orbitals:  5

atm_pop: Valence configuration (for local Pseudopot. screening):
 1s( 1.00)                                                            
 2p( 0.00)                                                            
Vna: chval, zval:    1.00000   1.00000

Vna:  Cut-off radius for the neutral-atom potential:   4.950554

atom: _________________________________________________________________________

prinput: Basis input ----------------------------------------------------------

PAO.BasisType split     

%block ChemicalSpeciesLabel
    1    8 O                       # Species index, atomic number, species label
    2    1 H                       # Species index, atomic number, species label
%endblock ChemicalSpeciesLabel

%block PAO.Basis                 # Define Basis set
O                     3  -0.185            # Label, l-shells, ionic net charge
 n=2   0   2                         # n, l, Nzeta 
   7.356      4.690   
   1.000      1.000   
 n=2   1   2                         # n, l, Nzeta 
   6.656      3.066   
   1.000      1.000   
 n=3   2   1                         # n, l, Nzeta 
   6.997   
   1.000   
H                     2   0.220            # Label, l-shells, ionic net charge
 n=1   0   2                         # n, l, Nzeta 
   4.951      1.775   
   1.000      1.000   
 n=2   1   1                         # n, l, Nzeta 
   5.076   
   1.000   
%endblock PAO.Basis

prinput: ----------------------------------------------------------------------

Dumping basis to NetCDF file O.ion.nc
Dumping basis to NetCDF file H.ion.nc
coor:   Atomic-coordinates input format  =     Cartesian coordinates
coor:                                          (in Angstroms)

ioxv: Reading coordinates and velocities from file
! Info in XV file prevails over previous structure input
WARNING: xoc.VERLET_RESTART not found--reading only XV file and moving back 1 time step using Euler

siesta: Atomic coordinates (Bohr) and species
siesta:      2.54735  -0.00100  -0.00070  1        1
siesta:      5.01155  -0.00100  -0.00070  1        2
siesta:     12.94052   0.01600   0.01130  2        3
siesta:     14.34566   0.01600   0.01130  2        4

siesta: System type = chain     

initatomlists: Number of atoms, orbitals, and projectors:      4    36    50

coxmol: Writing XMOL coordinates into file xoc.xyz                                                             

siesta: ******************** Simulation parameters ****************************
siesta:
siesta: The following are some of the parameters of the simulation.
siesta: A complete list of the parameters used, including default values,
siesta: can be found in file out.fdf
siesta:
redata: Spin configuration                          = none
redata: Number of spin components                   = 1
redata: Time-Reversal Symmetry                      = T
redata: Spin spiral                                 = F
redata: Long output                                 =   F
redata: Number of Atomic Species                    =        2
redata: Charge density info will appear in .RHO file
redata: Write Mulliken Pop.                         = NO
redata: Matel table size (NRTAB)                    =     1024
redata: Mesh Cutoff                                 =   200.0000 Ry
redata: Net charge of the system                    =     0.0000 |e|
redata: Min. number of SCF Iter                     =        0
redata: Max. number of SCF Iter                     =      150
redata: SCF convergence failure will abort job
redata: SCF mix quantity                            = Hamiltonian
redata: Mix DM or H after convergence               =   F
redata: Recompute H after scf cycle                 =   F
redata: Mix DM in first SCF step                    =   T
redata: Write Pulay info on disk                    =   F
redata: New DM Occupancy tolerance                  = 0.000000000001
redata: No kicks to SCF
redata: DM Mixing Weight for Kicks                  =     0.5000
redata: Require Harris convergence for SCF          =   F
redata: Harris energy tolerance for SCF             =     0.000100 eV
redata: Require DM convergence for SCF              =   T
redata: DM tolerance for SCF                        =     0.000300
redata: Require EDM convergence for SCF             =   F
redata: EDM tolerance for SCF                       =     0.001000 eV
redata: Require H convergence for SCF               =   T
redata: Hamiltonian tolerance for SCF               =     0.001000 eV
redata: Require (free) Energy convergence for SCF   =   F
redata: (free) Energy tolerance for SCF             =     0.000100 eV
redata: Using Saved Data (generic)                  =   T
redata: Use continuation files for DM               =   T
redata: Neglect nonoverlap interactions             =   F
redata: Method of Calculation                       = Diagonalization
redata: Electronic Temperature                      =   290.1109 K
redata: Fix the spin of the system                  =   F
redata: Dynamics option                             = Verlet MD run
redata: Initial MD time step                        =        1
redata:   Final MD time step                        =      200
redata: Length of MD time step                      =     1.0000 fs
redata: Initial Temperature of MD run               =     0.0000 K
redata: Perform a MD quench                         =   F
mix.SCF: Pulay mixing                            = Pulay
mix.SCF:    Variant                              = stable
mix.SCF:    History steps                        = 6
mix.SCF:    Linear mixing weight                 =     0.020000
mix.SCF:    Mixing weight                        =     0.020000
mix.SCF:    SVD condition                        = 0.1000E-07
redata: Save all siesta data in one NC              =   F
redata: ***********************************************************************

%block SCF.Mixers
  Pulay
%endblock SCF.Mixers

%block SCF.Mixer.Pulay
  # Mixing method
  method pulay
  variant stable

  # Mixing options
  weight 0.0200
  weight.linear 0.0200
  history 6
%endblock SCF.Mixer.Pulay

Size of DM history Fstack: 1
Total number of electrons:    14.000000
Total ionic charge:    14.000000
 Kpoints in:            1 . Kpoints trimmed:            1

siesta: k-grid: Number of k-points =     1
siesta: k-grid: Cutoff (effective) =     5.000 Ang
siesta: k-grid: Supercell and displacements
siesta: k-grid:    1   0   0      0.000
siesta: k-grid:    0   1   0      0.000
siesta: k-grid:    0   0   1      0.000

diag: Algorithm                                     = D&C
diag: Used triangular part                          = Lower
diag: Absolute tolerance                            =  0.100E-15
diag: Orthogonalization factor                      =  0.100E-05
diag: Memory factor                                 =  1.0000


ts: **************************************************************
ts: Save H and S matrices                           =    F
ts: Save DM and EDM matrices                        =    F
ts: Only save the overlap matrix S                  =    F
ts: **************************************************************

************************ Begin: TS CHECKS AND WARNINGS ************************
************************ End: TS CHECKS AND WARNINGS **************************


                     ====================================
                        Begin MD step =      1
                     ====================================

outcell: Unit cell vectors (Ang):
       10.000000    0.000000    0.000000
        0.000000   10.000000    0.000000
        0.000000    0.000000   10.000000

outcell: Cell vector modules (Ang)   :   10.000000   10.000000   10.000000
outcell: Cell angles (23,13,12) (deg):     90.0000     90.0000     90.0000
outcell: Cell volume (Ang**3)        :   1000.0000
Gamma-point calculation with multiply-connected orbital pairs
Gamma-point calculation with multiply-connected orbital pairs
Folding of H and S implicitly performed
Folding of H and S implicitly performed
<dSpData1D:S at geom step 1
  <sparsity:sparsity for geom step 1
    nrows_g=36 nrows=36 sparsity=.9522 nnzs=1234, refcount: 7>
  <dData1D:(new from dSpData1D) n=1234, refcount: 1>
refcount: 1>
new_DM -- step:     1
Initializing Density Matrix...

Attempting to read DM from file... Failed...
DM filled with atomic data:
<dSpData2D:DM initialized from atoms
  <sparsity:sparsity for geom step 1
    nrows_g=36 nrows=36 sparsity=.9522 nnzs=1234, refcount: 8>
  <dData2D:DM n=1234 m=1, refcount: 1>
refcount: 1>
No. of atoms with KB's overlaping orbs in proc 0. Max # of overlaps:       4      29
New grid distribution:   1
           1       1:   45    1:   45    1:   45

InitMesh: MESH =    90 x    90 x    90 =      729000
InitMesh: (bp) =    45 x    45 x    45 =       91125
InitMesh: Mesh cutoff (required, used) =   200.000   223.865 Ry
ExtMesh (bp) on 0 =   117 x   117 x   117 =     1601613
PhiOnMesh: Number of (b)points on node 0 =                91125
PhiOnMesh: nlist on node 0 =               451185

stepf: Fermi-Dirac step function

siesta: Program's energy decomposition (eV):
siesta: Ebs     =      -190.948608
siesta: Eions   =      1592.294315
siesta: Ena     =       380.201806
siesta: Ekin    =       663.410568
siesta: Enl     =      -100.295344
siesta: Eso     =         0.000000
siesta: Edftu   =         0.000000
siesta: DEna    =       -43.048669
siesta: DUscf   =         3.005361
siesta: DUext   =         0.000000
siesta: Exc     =      -210.895422
siesta: eta*DQ  =         0.000000
siesta: Emadel  =         0.000000
siesta: Emeta   =         0.000000
siesta: Emolmec =         0.000000
siesta: Ekinion =         0.000000
siesta: Eharris =      -900.674553
siesta: Etot    =      -899.916014
siesta: FreeEng =      -899.985329

        iscf     Eharris(eV)        E_KS(eV)     FreeEng(eV)     dDmax    Ef(eV) dHmax(eV)
   scf:    1     -900.674553     -899.916014     -899.985329  3.413249 -9.442729  4.724946
timer: Routine,Calls,Time,% = IterSCF        1       1.390  37.94
   scf:    2     -899.998081     -899.957173     -900.026488  0.062554 -9.352686  4.566441
   scf:    3     -900.969105     -900.591007     -900.660322  2.454578 -6.787065  0.575318
   scf:    4     -900.031561     -900.361033     -900.430348  1.904736 -5.438015  3.263677
   scf:    5     -900.730575     -900.602649     -900.671963  1.683958 -6.849870  0.053052
   scf:    6     -900.602630     -900.602642     -900.671957  0.012677 -6.838780  0.049508
   scf:    7     -900.588048     -900.596797     -900.666112  0.261052 -7.079616  0.509217
   scf:    8     -900.606462     -900.602575     -900.671889  0.194282 -6.879775  0.085338
   scf:    9     -900.602816     -900.602705     -900.672020  0.012399 -6.860707  0.044294
   scf:   10     -900.602765     -900.602749     -900.672064  0.022939 -6.836905  0.010881
   scf:   11     -900.602746     -900.602749     -900.672063  0.004385 -6.840224  0.003159
   scf:   12     -900.602749     -900.602749     -900.672064  0.000435 -6.839465  0.001728
   scf:   13     -900.602751     -900.602751     -900.672065  0.001081 -6.838941  0.000084
   scf:   14     -900.602751     -900.602751     -900.672065  0.000004 -6.838937  0.000083

SCF Convergence by DM+H criterion
max |DM_out - DM_in|         :     0.0000044650
max |H_out - H_in|      (eV) :     0.0000832672
SCF cycle converged after 14 iterations

Using DM_out to compute the final energy and forces
No. of atoms with KB's overlaping orbs in proc 0. Max # of overlaps:       4      29

siesta: E_KS(eV) =             -900.6028

siesta: E_KS - E_eggbox =      -900.6028

siesta: Atomic forces (eV/Ang):
----------------------------------------
   Tot    0.000391    0.000555    0.000431
----------------------------------------
   Max    0.103919
   Res    0.042732    sqrt( Sum f_i^2 / 3N )
----------------------------------------
   Max    0.103919    constrained

Stress tensor Voigt[x,y,z,yz,xz,xy] (kbar):      -16.32       -0.42       -0.25       -0.10        0.05        0.26
(Free)E + p*V (eV/cell)     -897.1396
Target enthalpy (eV/cell)     -900.6721

siesta: Stress tensor (static) (eV/Ang**3):
         0.000014   -0.000000   -0.000000
        -0.000000    0.000006    0.000000
        -0.000000    0.000000    0.000006

siesta: Pressure (static):         -0.01370219  kBar

siesta: Stress tensor (total) (eV/Ang**3):
        -0.010184    0.000163    0.000029
         0.000163   -0.000259   -0.000060
         0.000029   -0.000060   -0.000154

siesta: Pressure (total):          5.65977261  kBar

siesta: Temp_ion =   13797.487 K

                     ====================================
                        Begin MD step =      2
                     ====================================

outcell: Unit cell vectors (Ang):
       10.000000    0.000000    0.000000
        0.000000   10.000000    0.000000
        0.000000    0.000000   10.000000

outcell: Cell vector modules (Ang)   :   10.000000   10.000000   10.000000
outcell: Cell angles (23,13,12) (deg):     90.0000     90.0000     90.0000
outcell: Cell volume (Ang**3)        :   1000.0000
Gamma-point calculation with multiply-connected orbital pairs
Gamma-point calculation with multiply-connected orbital pairs
Folding of H and S implicitly performed
Folding of H and S implicitly performed
<dSpData1D:S at geom step 2
  <sparsity:sparsity for geom step 2
    nrows_g=36 nrows=36 sparsity=.9383 nnzs=1216, refcount: 7>
  <dData1D:(new from dSpData1D) n=1216, refcount: 1>
refcount: 1>
new_DM -- step:     2
Re-using DM from previous geometries...
Number of DMs in history: 1
 DM extrapolation coefficients: 
1   1.00000
New DM after history re-use:
<dSpData2D:SpM extrapolated using coords
  <sparsity:sparsity for geom step 2
    nrows_g=36 nrows=36 sparsity=.9383 nnzs=1216, refcount: 9>
  <dData2D:(temp array for extrapolation) n=1216 m=1, refcount: 1>
refcount: 1>
Note: For starting DM, Qtot, Tr[D*S] =         14.00000000         14.01600251
No. of atoms with KB's overlaping orbs in proc 0. Max # of overlaps:       4      26
New grid distribution:   1
           1       1:   45    1:   45    1:   45

InitMesh: MESH =    90 x    90 x    90 =      729000
InitMesh: (bp) =    45 x    45 x    45 =       91125
InitMesh: Mesh cutoff (required, used) =   200.000   223.865 Ry
ExtMesh (bp) on 0 =   117 x   117 x   117 =     1601613
PhiOnMesh: Number of (b)points on node 0 =                91125
PhiOnMesh: nlist on node 0 =               451289

        iscf     Eharris(eV)        E_KS(eV)     FreeEng(eV)     dDmax    Ef(eV) dHmax(eV)
   scf:    1     -900.466194     -900.593284     -900.662599  0.185876 -6.884128  0.180023
   scf:    2     -900.592616     -900.593523     -900.662831  0.196876 -6.723593  0.171726
   scf:    3     -900.594372     -900.594054     -900.663367  0.081487 -6.789399  0.026850
   scf:    4     -900.594009     -900.594080     -900.663393  0.008928 -6.785329  0.019019
   scf:    5     -900.594109     -900.594105     -900.663420  0.004187 -6.788123  0.018736
   scf:    6     -900.594065     -900.594090     -900.663404  0.021884 -6.771109  0.032983
   scf:    7     -900.594051     -900.594092     -900.663406  0.030988 -6.797021  0.034964
   scf:    8     -900.594125     -900.594112     -900.663427  0.012247 -6.784715  0.006141
   scf:    9     -900.594113     -900.594113     -900.663428  0.001765 -6.782817  0.000094
   scf:   10     -900.594113     -900.594113     -900.663428  0.000018 -6.782816  0.000093

SCF Convergence by DM+H criterion
max |DM_out - DM_in|         :     0.0000178730
max |H_out - H_in|      (eV) :     0.0000930641
SCF cycle converged after 10 iterations

Using DM_out to compute the final energy and forces
No. of atoms with KB's overlaping orbs in proc 0. Max # of overlaps:       4      26

siesta: E_KS(eV) =             -900.5941

siesta: Atomic forces (eV/Ang):
----------------------------------------
   Tot    0.000464    0.000529    0.000320
----------------------------------------
   Max    0.627674
   Res    0.337992    sqrt( Sum f_i^2 / 3N )
----------------------------------------
   Max    0.627674    constrained

Stress tensor Voigt[x,y,z,yz,xz,xy] (kbar):      -18.07       -0.42       -0.25       -0.10        0.00        0.22
(Free)E + p*V (eV/cell)     -896.7658
Target enthalpy (eV/cell)     -900.6634

siesta: Stress tensor (static) (eV/Ang**3):
        -0.001078   -0.000029   -0.000027
        -0.000029    0.000005   -0.000001
        -0.000027   -0.000001    0.000004

siesta: Pressure (static):          0.57131222  kBar

siesta: Stress tensor (total) (eV/Ang**3):
        -0.011276    0.000135    0.000002
         0.000135   -0.000261   -0.000061
         0.000002   -0.000061   -0.000156

siesta: Pressure (total):          6.24478702  kBar

siesta: Temp_ion =   13778.958 K

                     ====================================
                        Begin MD step =      3
                     ====================================

outcell: Unit cell vectors (Ang):
       10.000000    0.000000    0.000000
        0.000000   10.000000    0.000000
        0.000000    0.000000   10.000000

outcell: Cell vector modules (Ang)   :   10.000000   10.000000   10.000000
outcell: Cell angles (23,13,12) (deg):     90.0000     90.0000     90.0000
outcell: Cell volume (Ang**3)        :   1000.0000
Gamma-point calculation with multiply-connected orbital pairs
Gamma-point calculation with multiply-connected orbital pairs
Folding of H and S implicitly performed
Folding of H and S implicitly performed
<dSpData1D:S at geom step 3
  <sparsity:sparsity for geom step 3
    nrows_g=36 nrows=36 sparsity=.9522 nnzs=1234, refcount: 7>
  <dData1D:(new from dSpData1D) n=1234, refcount: 1>
refcount: 1>
new_DM -- step:     3
Re-using DM from previous geometries...
Number of DMs in history: 1
 DM extrapolation coefficients: 
1   1.00000
New DM after history re-use:
<dSpData2D:SpM extrapolated using coords
  <sparsity:sparsity for geom step 3
    nrows_g=36 nrows=36 sparsity=.9522 nnzs=1234, refcount: 9>
  <dData2D:(temp array for extrapolation) n=1234 m=1, refcount: 1>
refcount: 1>
No. of atoms with KB's overlaping orbs in proc 0. Max # of overlaps:       4      29
New grid distribution:   1
           1       1:   45    1:   45    1:   45

InitMesh: MESH =    90 x    90 x    90 =      729000
InitMesh: (bp) =    45 x    45 x    45 =       91125
InitMesh: Mesh cutoff (required, used) =   200.000   223.865 Ry
ExtMesh (bp) on 0 =   117 x   117 x   117 =     1601613
PhiOnMesh: Number of (b)points on node 0 =                91125
PhiOnMesh: nlist on node 0 =               451282

        iscf     Eharris(eV)        E_KS(eV)     FreeEng(eV)     dDmax    Ef(eV) dHmax(eV)
   scf:    1     -900.417666     -900.587975     -900.657290  0.265966 -6.725909  0.072736
   scf:    2     -900.587444     -900.587952     -900.657252  0.077420 -6.735991  0.064718
   scf:    3     -900.588363     -900.588213     -900.657525  0.031659 -6.731838  0.023457
   scf:    4     -900.588136     -900.588243     -900.657555  0.010344 -6.732361  0.008903
   scf:    5     -900.588275     -900.588275     -900.657589  0.003940 -6.732102  0.002461
   scf:    6     -900.588273     -900.588274     -900.657589  0.002944 -6.732049  0.003580
   scf:    7     -900.588276     -900.588275     -900.657590  0.001011 -6.731197  0.000657
   scf:    8     -900.588275     -900.588275     -900.657590  0.000507 -6.731263  0.000243
   scf:    9     -900.588275     -900.588275     -900.657590  0.000048 -6.731288  0.000172

SCF Convergence by DM+H criterion
max |DM_out - DM_in|         :     0.0000481350
max |H_out - H_in|      (eV) :     0.0001716362
SCF cycle converged after 9 iterations

Using DM_out to compute the final energy and forces
No. of atoms with KB's overlaping orbs in proc 0. Max # of overlaps:       4      29

siesta: E_KS(eV) =             -900.5883

siesta: Atomic forces (eV/Ang):
----------------------------------------
   Tot    0.000471    0.000129   -0.000087
----------------------------------------
   Max    1.130380
   Res    0.509387    sqrt( Sum f_i^2 / 3N )
----------------------------------------
   Max    1.130380    constrained

Stress tensor Voigt[x,y,z,yz,xz,xy] (kbar):      -19.05       -0.43       -0.26       -0.11       -0.05        0.12
(Free)E + p*V (eV/cell)     -896.5514
Target enthalpy (eV/cell)     -900.6576

siesta: Stress tensor (static) (eV/Ang**3):
        -0.001708   -0.000073   -0.000050
        -0.000073    0.000000   -0.000005
        -0.000050   -0.000005   -0.000002

siesta: Pressure (static):          0.91313041  kBar

siesta: Stress tensor (total) (eV/Ang**3):
        -0.011888    0.000077   -0.000033
         0.000076   -0.000266   -0.000067
        -0.000033   -0.000067   -0.000165

siesta: Pressure (total):          6.57898633  kBar

siesta: Temp_ion =   13763.926 K

                     ====================================
                        Begin MD step =      4
                     ====================================

outcell: Unit cell vectors (Ang):
       10.000000    0.000000    0.000000
        0.000000   10.000000    0.000000
        0.000000    0.000000   10.000000

outcell: Cell vector modules (Ang)   :   10.000000   10.000000   10.000000
outcell: Cell angles (23,13,12) (deg):     90.0000     90.0000     90.0000
outcell: Cell volume (Ang**3)        :   1000.0000
Gamma-point calculation with multiply-connected orbital pairs
Gamma-point calculation with multiply-connected orbital pairs
Folding of H and S implicitly performed
Folding of H and S implicitly performed
<dSpData1D:S at geom step 4
  <sparsity:sparsity for geom step 4
    nrows_g=36 nrows=36 sparsity=.9475 nnzs=1228, refcount: 7>
  <dData1D:(new from dSpData1D) n=1228, refcount: 1>
refcount: 1>
new_DM -- step:     4
Re-using DM from previous geometries...
Number of DMs in history: 1
 DM extrapolation coefficients: 
1   1.00000
New DM after history re-use:
<dSpData2D:SpM extrapolated using coords
  <sparsity:sparsity for geom step 4
    nrows_g=36 nrows=36 sparsity=.9475 nnzs=1228, refcount: 9>
  <dData2D:(temp array for extrapolation) n=1228 m=1, refcount: 1>
refcount: 1>
No. of atoms with KB's overlaping orbs in proc 0. Max # of overlaps:       4      30
New grid distribution:   1
           1       1:   45    1:   45    1:   45

InitMesh: MESH =    90 x    90 x    90 =      729000
InitMesh: (bp) =    45 x    45 x    45 =       91125
InitMesh: Mesh cutoff (required, used) =   200.000   223.865 Ry
ExtMesh (bp) on 0 =   117 x   117 x   117 =     1601613
PhiOnMesh: Number of (b)points on node 0 =                91125
PhiOnMesh: nlist on node 0 =               451238

        iscf     Eharris(eV)        E_KS(eV)     FreeEng(eV)     dDmax    Ef(eV) dHmax(eV)
   scf:    1     -900.384707     -900.586089     -900.655403  0.364965 -6.576822  0.229507
   scf:    2     -900.580613     -900.584915     -900.654130  0.078332 -6.758078  0.255232
   scf:    3     -900.587876     -900.586762     -900.656060  0.033153 -6.682182  0.046504
   scf:    4     -900.586394     -900.586913     -900.656217  0.019073 -6.685990  0.027127
   scf:    5     -900.586981     -900.587036     -900.656350  0.010196 -6.689607  0.019431
   scf:    6     -900.586938     -900.587003     -900.656317  0.004507 -6.698528  0.039796
   scf:    7     -900.587051     -900.587050     -900.656364  0.018562 -6.685036  0.008991
   scf:    8     -900.587051     -900.587051     -900.656365  0.003131 -6.688089  0.003067
   scf:    9     -900.587052     -900.587052     -900.656366  0.000743 -6.688610  0.000406
   scf:   10     -900.587052     -900.587052     -900.656367  0.000082 -6.688640  0.000327

SCF Convergence by DM+H criterion
max |DM_out - DM_in|         :     0.0000820594
max |H_out - H_in|      (eV) :     0.0003272781
SCF cycle converged after 10 iterations

Using DM_out to compute the final energy and forces
No. of atoms with KB's overlaping orbs in proc 0. Max # of overlaps:       4      30

siesta: E_KS(eV) =             -900.5871

siesta: Atomic forces (eV/Ang):
----------------------------------------
   Tot   -0.000516   -0.000435   -0.000449
----------------------------------------
   Max    1.552596
   Res    0.630005    sqrt( Sum f_i^2 / 3N )
----------------------------------------
   Max    1.552596    constrained

Stress tensor Voigt[x,y,z,yz,xz,xy] (kbar):      -19.22       -0.43       -0.26       -0.10        0.02        0.08
(Free)E + p*V (eV/cell)     -896.5143
Target enthalpy (eV/cell)     -900.6564

siesta: Stress tensor (static) (eV/Ang**3):
        -0.001839   -0.000068    0.000020
        -0.000068    0.000002    0.000002
         0.000020    0.000002    0.000008

siesta: Pressure (static):          0.97672203  kBar

siesta: Stress tensor (total) (eV/Ang**3):
        -0.011998    0.000049    0.000011
         0.000049   -0.000267   -0.000064
         0.000011   -0.000064   -0.000161

siesta: Pressure (total):          6.63639700  kBar

siesta: Temp_ion =   13757.386 K

                     ====================================
                        Begin MD step =      5
                     ====================================

outcell: Unit cell vectors (Ang):
       10.000000    0.000000    0.000000
        0.000000   10.000000    0.000000
        0.000000    0.000000   10.000000

outcell: Cell vector modules (Ang)   :   10.000000   10.000000   10.000000
outcell: Cell angles (23,13,12) (deg):     90.0000     90.0000     90.0000
outcell: Cell volume (Ang**3)        :   1000.0000
Gamma-point calculation with multiply-connected orbital pairs
Gamma-point calculation with multiply-connected orbital pairs
Folding of H and S implicitly performed
Folding of H and S implicitly performed
<dSpData1D:S at geom step 5
  <sparsity:sparsity for geom step 5
    nrows_g=36 nrows=36 sparsity=.9414 nnzs=1220, refcount: 7>
  <dData1D:(new from dSpData1D) n=1220, refcount: 1>
refcount: 1>
new_DM -- step:     5
Re-using DM from previous geometries...
Number of DMs in history: 1
 DM extrapolation coefficients: 
1   1.00000
New DM after history re-use:
<dSpData2D:SpM extrapolated using coords
  <sparsity:sparsity for geom step 5
    nrows_g=36 nrows=36 sparsity=.9414 nnzs=1220, refcount: 9>
  <dData2D:(temp array for extrapolation) n=1220 m=1, refcount: 1>
refcount: 1>
No. of atoms with KB's overlaping orbs in proc 0. Max # of overlaps:       4      30
New grid distribution:   1
           1       1:   45    1:   45    1:   45

InitMesh: MESH =    90 x    90 x    90 =      729000
InitMesh: (bp) =    45 x    45 x    45 =       91125
InitMesh: Mesh cutoff (required, used) =   200.000   223.865 Ry
ExtMesh (bp) on 0 =   117 x   117 x   117 =     1601613
PhiOnMesh: Number of (b)points on node 0 =                91125
PhiOnMesh: nlist on node 0 =               451261

        iscf     Eharris(eV)        E_KS(eV)     FreeEng(eV)     dDmax    Ef(eV) dHmax(eV)
   scf:    1     -900.397298     -900.575367     -900.644679  0.444893 -6.520093  0.282778
   scf:    2     -900.557465     -900.570482     -900.639406  0.134146 -6.744612  0.334742
   scf:    3     -900.578858     -900.575779     -900.645033  0.058382 -6.647067  0.070063
   scf:    4     -900.575041     -900.576362     -900.645653  0.030383 -6.653827  0.034383
   scf:    5     -900.576550     -900.576630     -900.645945  0.012888 -6.658598  0.025184
   scf:    6     -900.576609     -900.576621     -900.645935  0.002308 -6.662738  0.028823
   scf:    7     -900.576663     -900.576650     -900.645965  0.013952 -6.657508  0.001526
   scf:    8     -900.576649     -900.576650     -900.645964  0.000616 -6.657774  0.002051
   scf:    9     -900.576649     -900.576650     -900.645964  0.000732 -6.658282  0.000565
   scf:   10     -900.576650     -900.576650     -900.645964  0.000195 -6.658358  0.000508

SCF Convergence by DM+H criterion
max |DM_out - DM_in|         :     0.0001952064
max |H_out - H_in|      (eV) :     0.0005080629
SCF cycle converged after 10 iterations

Using DM_out to compute the final energy and forces
No. of atoms with KB's overlaping orbs in proc 0. Max # of overlaps:       4      30

siesta: E_KS(eV) =             -900.5766

siesta: Atomic forces (eV/Ang):
----------------------------------------
   Tot    0.000506   -0.000021    0.000513
----------------------------------------
   Max    1.850396
   Res    0.803080    sqrt( Sum f_i^2 / 3N )
----------------------------------------
   Max    1.850396    constrained

Stress tensor Voigt[x,y,z,yz,xz,xy] (kbar):      -19.09       -0.41       -0.19       -0.06        0.24        0.11
(Free)E + p*V (eV/cell)     -896.5490
Target enthalpy (eV/cell)     -900.6460

siesta: Stress tensor (static) (eV/Ang**3):
        -0.001767   -0.000020    0.000168
        -0.000020    0.000017    0.000031
         0.000168    0.000031    0.000052

siesta: Pressure (static):          0.90716959  kBar

siesta: Stress tensor (total) (eV/Ang**3):
        -0.011914    0.000068    0.000149
         0.000068   -0.000256   -0.000037
         0.000149   -0.000037   -0.000121

siesta: Pressure (total):          6.56415518  kBar

siesta: Temp_ion =   13731.955 K

                     ====================================
                        Begin MD step =      6
                     ====================================

outcell: Unit cell vectors (Ang):
       10.000000    0.000000    0.000000
        0.000000   10.000000    0.000000
        0.000000    0.000000   10.000000

outcell: Cell vector modules (Ang)   :   10.000000   10.000000   10.000000
outcell: Cell angles (23,13,12) (deg):     90.0000     90.0000     90.0000
outcell: Cell volume (Ang**3)        :   1000.0000
Gamma-point calculation with multiply-connected orbital pairs
Gamma-point calculation with multiply-connected orbital pairs
Folding of H and S implicitly performed
Folding of H and S implicitly performed
<dSpData1D:S at geom step 6
  <sparsity:sparsity for geom step 6
    nrows_g=36 nrows=36 sparsity=.9552 nnzs=1238, refcount: 7>
  <dData1D:(new from dSpData1D) n=1238, refcount: 1>
refcount: 1>
new_DM -- step:     6
Re-using DM from previous geometries...
Number of DMs in history: 1
 DM extrapolation coefficients: 
1   1.00000
New DM after history re-use:
<dSpData2D:SpM extrapolated using coords
  <sparsity:sparsity for geom step 6
    nrows_g=36 nrows=36 sparsity=.9552 nnzs=1238, refcount: 9>
  <dData2D:(temp array for extrapolation) n=1238 m=1, refcount: 1>
refcount: 1>
No. of atoms with KB's overlaping orbs in proc 0. Max # of overlaps:       4      30
New grid distribution:   1
           1       1:   45    1:   45    1:   45

InitMesh: MESH =    90 x    90 x    90 =      729000
InitMesh: (bp) =    45 x    45 x    45 =       91125
InitMesh: Mesh cutoff (required, used) =   200.000   223.865 Ry
ExtMesh (bp) on 0 =   117 x   117 x   117 =     1601613
PhiOnMesh: Number of (b)points on node 0 =                91125
PhiOnMesh: nlist on node 0 =               451217

        iscf     Eharris(eV)        E_KS(eV)     FreeEng(eV)     dDmax    Ef(eV) dHmax(eV)
   scf:    1     -900.472588     -900.566521     -900.635831  0.488704 -6.568795  0.157214
   scf:    2     -900.539417     -900.558253     -900.626862  0.077796 -6.690306  0.243089
   scf:    3     -900.569906     -900.565845     -900.635066  0.044929 -6.632525  0.066177
   scf:    4     -900.566063     -900.566855     -900.636161  0.031299 -6.640591  0.022673
   scf:    5     -900.566879     -900.566955     -900.636269  0.009705 -6.639610  0.016431
   scf:    6     -900.566903     -900.566951     -900.636264  0.004987 -6.644582  0.013046
   scf:    7     -900.566969     -900.566967     -900.636282  0.006670 -6.643031  0.000744
   scf:    8     -900.566967     -900.566967     -900.636282  0.000279 -6.642915  0.000907

SCF Convergence by DM+H criterion
max |DM_out - DM_in|         :     0.0002794935
max |H_out - H_in|      (eV) :     0.0009068294
SCF cycle converged after 8 iterations

Using DM_out to compute the final energy and forces
No. of atoms with KB's overlaping orbs in proc 0. Max # of overlaps:       4      30

siesta: E_KS(eV) =             -900.5670

siesta: Atomic forces (eV/Ang):
----------------------------------------
   Tot   -0.000297   -0.000149    0.000589
----------------------------------------
   Max    1.987834
   Res    0.915698    sqrt( Sum f_i^2 / 3N )
----------------------------------------
   Max    1.987834    constrained

Stress tensor Voigt[x,y,z,yz,xz,xy] (kbar):      -19.04       -0.37       -0.08        0.02        0.48        0.15
(Free)E + p*V (eV/cell)     -896.5811
Target enthalpy (eV/cell)     -900.6363

siesta: Stress tensor (static) (eV/Ang**3):
        -0.001738    0.000017    0.000292
         0.000017    0.000036    0.000070
         0.000292    0.000070    0.000109

siesta: Pressure (static):          0.85073144  kBar

siesta: Stress tensor (total) (eV/Ang**3):
        -0.011881    0.000091    0.000297
         0.000091   -0.000233    0.000010
         0.000297    0.000010   -0.000051

siesta: Pressure (total):          6.49725981  kBar

siesta: Temp_ion =   13709.867 K

                     ====================================
                        Begin MD step =      7
                     ====================================

outcell: Unit cell vectors (Ang):
       10.000000    0.000000    0.000000
        0.000000   10.000000    0.000000
        0.000000    0.000000   10.000000

outcell: Cell vector modules (Ang)   :   10.000000   10.000000   10.000000
outcell: Cell angles (23,13,12) (deg):     90.0000     90.0000     90.0000
outcell: Cell volume (Ang**3)        :   1000.0000
Gamma-point calculation with multiply-connected orbital pairs
Gamma-point calculation with multiply-connected orbital pairs
Folding of H and S implicitly performed
Folding of H and S implicitly performed
<dSpData1D:S at geom step 7
  <sparsity:sparsity for geom step 7
    nrows_g=36 nrows=36 sparsity=.9784 nnzs=1268, refcount: 7>
  <dData1D:(new from dSpData1D) n=1268, refcount: 1>
refcount: 1>
new_DM -- step:     7
Re-using DM from previous geometries...
Number of DMs in history: 1
 DM extrapolation coefficients: 
1   1.00000
New DM after history re-use:
<dSpData2D:SpM extrapolated using coords
  <sparsity:sparsity for geom step 7
    nrows_g=36 nrows=36 sparsity=.9784 nnzs=1268, refcount: 9>
  <dData2D:(temp array for extrapolation) n=1268 m=1, refcount: 1>
refcount: 1>
No. of atoms with KB's overlaping orbs in proc 0. Max # of overlaps:       4      34
New grid distribution:   1
           1       1:   45    1:   45    1:   45

InitMesh: MESH =    90 x    90 x    90 =      729000
InitMesh: (bp) =    45 x    45 x    45 =       91125
InitMesh: Mesh cutoff (required, used) =   200.000   223.865 Ry
ExtMesh (bp) on 0 =   117 x   117 x   117 =     1601613
PhiOnMesh: Number of (b)points on node 0 =                91125
PhiOnMesh: nlist on node 0 =               451256

        iscf     Eharris(eV)        E_KS(eV)     FreeEng(eV)     dDmax    Ef(eV) dHmax(eV)
   scf:    1     -900.594669     -900.575342     -900.644654  0.468332 -6.680646  0.073545
   scf:    2     -900.564488     -900.572007     -900.641026  0.055214 -6.622165  0.119573
   scf:    3     -900.576644     -900.575037     -900.644313  0.032064 -6.650058  0.032442
   scf:    4     -900.575379     -900.575476     -900.644790  0.019092 -6.646346  0.011421
   scf:    5     -900.575460     -900.575478     -900.644793  0.003653 -6.644320  0.007343
   scf:    6     -900.575474     -900.575476     -900.644790  0.000358 -6.644051  0.007339
   scf:    7     -900.575483     -900.575485     -900.644799  0.002846 -6.645397  0.000799
   scf:    8     -900.575485     -900.575485     -900.644799  0.000105 -6.645501  0.000975

SCF Convergence by DM+H criterion
max |DM_out - DM_in|         :     0.0001049197
max |H_out - H_in|      (eV) :     0.0009751238
SCF cycle converged after 8 iterations

Using DM_out to compute the final energy and forces
No. of atoms with KB's overlaping orbs in proc 0. Max # of overlaps:       4      34

siesta: E_KS(eV) =             -900.5755

siesta: Atomic forces (eV/Ang):
----------------------------------------
   Tot   -0.007765   -0.000019    0.000194
----------------------------------------
   Max    1.945734
   Res    0.888082    sqrt( Sum f_i^2 / 3N )
----------------------------------------
   Max    1.945734    constrained

Stress tensor Voigt[x,y,z,yz,xz,xy] (kbar):      -19.15       -0.35        0.01        0.08        0.57        0.10
(Free)E + p*V (eV/cell)     -896.5918
Target enthalpy (eV/cell)     -900.6448

siesta: Stress tensor (static) (eV/Ang**3):
        -0.001785   -0.000005    0.000308
        -0.000005    0.000044    0.000090
         0.000308    0.000090    0.000138

siesta: Pressure (static):          0.85627749  kBar

siesta: Stress tensor (total) (eV/Ang**3):
        -0.011950    0.000064    0.000357
         0.000064   -0.000216    0.000050
         0.000357    0.000050    0.000007

siesta: Pressure (total):          6.49372349  kBar

siesta: Temp_ion =   13733.181 K

                     ====================================
                        Begin MD step =      8
                     ====================================

outcell: Unit cell vectors (Ang):
       10.000000    0.000000    0.000000
        0.000000   10.000000    0.000000
        0.000000    0.000000   10.000000

outcell: Cell vector modules (Ang)   :   10.000000   10.000000   10.000000
outcell: Cell angles (23,13,12) (deg):     90.0000     90.0000     90.0000
outcell: Cell volume (Ang**3)        :   1000.0000
Gamma-point calculation with multiply-connected orbital pairs
Gamma-point calculation with multiply-connected orbital pairs
Folding of H and S implicitly performed
Folding of H and S implicitly performed
<dSpData1D:S at geom step 8
  <sparsity:sparsity for geom step 8
    nrows_g=36 nrows=36 sparsity=.9784 nnzs=1268, refcount: 7>
  <dData1D:(new from dSpData1D) n=1268, refcount: 1>
refcount: 1>
new_DM -- step:     8
Re-using DM from previous geometries...
Number of DMs in history: 1
 DM extrapolation coefficients: 
1   1.00000
New DM after history re-use:
<dSpData2D:SpM extrapolated using coords
  <sparsity:sparsity for geom step 8
    nrows_g=36 nrows=36 sparsity=.9784 nnzs=1268, refcount: 9>
  <dData2D:(temp array for extrapolation) n=1268 m=1, refcount: 1>
refcount: 1>
No. of atoms with KB's overlaping orbs in proc 0. Max # of overlaps:       4      34
New grid distribution:   1
           1       1:   45    1:   45    1:   45

InitMesh: MESH =    90 x    90 x    90 =      729000
InitMesh: (bp) =    45 x    45 x    45 =       91125
InitMesh: Mesh cutoff (required, used) =   200.000   223.865 Ry
ExtMesh (bp) on 0 =   117 x   117 x   117 =     1601613
PhiOnMesh: Number of (b)points on node 0 =                91125
PhiOnMesh: nlist on node 0 =               451232

        iscf     Eharris(eV)        E_KS(eV)     FreeEng(eV)     dDmax    Ef(eV) dHmax(eV)
   scf:    1     -900.711831     -900.595761     -900.665074  0.402769 -6.795352  0.283327
   scf:    2     -900.580515     -900.591709     -900.660773  0.167295 -6.576701  0.373528
   scf:    3     -900.599027     -900.596389     -900.665670  0.078874 -6.678599  0.091078
   scf:    4     -900.595234     -900.596659     -900.665940  0.026129 -6.665638  0.031429
   scf:    5     -900.596913     -900.597028     -900.666342  0.014544 -6.667943  0.030427
   scf:    6     -900.596488     -900.596872     -900.666174  0.009774 -6.653654  0.047523
   scf:    7     -900.597049     -900.597044     -900.666359  0.013856 -6.663932  0.001582
   scf:    8     -900.597042     -900.597043     -900.666358  0.000559 -6.663696  0.002622
   scf:    9     -900.597044     -900.597044     -900.666359  0.000915 -6.663063  0.000447
   scf:   10     -900.597045     -900.597044     -900.666359  0.000112 -6.663002  0.000360

SCF Convergence by DM+H criterion
max |DM_out - DM_in|         :     0.0001123319
max |H_out - H_in|      (eV) :     0.0003599029
SCF cycle converged after 10 iterations

Using DM_out to compute the final energy and forces
No. of atoms with KB's overlaping orbs in proc 0. Max # of overlaps:       4      34

siesta: E_KS(eV) =             -900.5970

siesta: Atomic forces (eV/Ang):
----------------------------------------
   Tot    0.009381   -0.000137    0.000375
----------------------------------------
   Max    1.722898
   Res    0.735319    sqrt( Sum f_i^2 / 3N )
----------------------------------------
   Max    1.722898    constrained

Stress tensor Voigt[x,y,z,yz,xz,xy] (kbar):      -19.46       -0.36       -0.00        0.08        0.44       -0.05
(Free)E + p*V (eV/cell)     -896.5424
Target enthalpy (eV/cell)     -900.6664

siesta: Stress tensor (static) (eV/Ang**3):
        -0.001917   -0.000088    0.000190
        -0.000088    0.000023    0.000063
         0.000190    0.000063    0.000096

siesta: Pressure (static):          0.96040494  kBar

siesta: Stress tensor (total) (eV/Ang**3):
        -0.012146   -0.000030    0.000274
        -0.000030   -0.000226    0.000047
         0.000274    0.000047   -0.000000

siesta: Pressure (total):          6.60743742  kBar

siesta: Temp_ion =   13783.867 K

                     ====================================
                        Begin MD step =      9
                     ====================================

outcell: Unit cell vectors (Ang):
       10.000000    0.000000    0.000000
        0.000000   10.000000    0.000000
        0.000000    0.000000   10.000000

outcell: Cell vector modules (Ang)   :   10.000000   10.000000   10.000000
outcell: Cell angles (23,13,12) (deg):     90.0000     90.0000     90.0000
outcell: Cell volume (Ang**3)        :   1000.0000
Gamma-point calculation with multiply-connected orbital pairs
Gamma-point calculation with multiply-connected orbital pairs
Folding of H and S implicitly performed
Folding of H and S implicitly performed
<dSpData1D:S at geom step 9
  <sparsity:sparsity for geom step 9
    nrows_g=36 nrows=36 sparsity=.9830 nnzs=1274, refcount: 7>
  <dData1D:(new from dSpData1D) n=1274, refcount: 1>
refcount: 1>
new_DM -- step:     9
Re-using DM from previous geometries...
Number of DMs in history: 1
 DM extrapolation coefficients: 
1   1.00000
New DM after history re-use:
<dSpData2D:SpM extrapolated using coords
  <sparsity:sparsity for geom step 9
    nrows_g=36 nrows=36 sparsity=.9830 nnzs=1274, refcount: 9>
  <dData2D:(temp array for extrapolation) n=1274 m=1, refcount: 1>
refcount: 1>
Note: For starting DM, Qtot, Tr[D*S] =         14.00000000         14.01485884
No. of atoms with KB's overlaping orbs in proc 0. Max # of overlaps:       4      34
New grid distribution:   1
           1       1:   45    1:   45    1:   45

InitMesh: MESH =    90 x    90 x    90 =      729000
InitMesh: (bp) =    45 x    45 x    45 =       91125
InitMesh: Mesh cutoff (required, used) =   200.000   223.865 Ry
ExtMesh (bp) on 0 =   117 x   117 x   117 =     1601613
PhiOnMesh: Number of (b)points on node 0 =                91125
PhiOnMesh: nlist on node 0 =               451252

        iscf     Eharris(eV)        E_KS(eV)     FreeEng(eV)     dDmax    Ef(eV) dHmax(eV)
   scf:    1     -900.761520     -900.603177     -900.672489  0.124881 -6.858220  0.360973
   scf:    2     -900.580471     -900.597248     -900.666291  0.202281 -6.586609  0.516777
   scf:    3     -900.608307     -900.604375     -900.673655  0.099815 -6.718955  0.135027
   scf:    4     -900.603009     -900.604753     -900.674025  0.038790 -6.697435  0.033665
   scf:    5     -900.605196     -900.605254     -900.674568  0.021628 -6.702004  0.034076
   scf:    6     -900.604776     -900.605105     -900.674411  0.010950 -6.684479  0.059355
   scf:    7     -900.605280     -900.605271     -900.674585  0.017939 -6.697143  0.003525
   scf:    8     -900.605268     -900.605270     -900.674584  0.000538 -6.696537  0.004047
   scf:    9     -900.605271     -900.605271     -900.674586  0.001915 -6.695444  0.000316
   scf:   10     -900.605271     -900.605271     -900.674586  0.000068 -6.695426  0.000314

SCF Convergence by DM+H criterion
max |DM_out - DM_in|         :     0.0000675550
max |H_out - H_in|      (eV) :     0.0003142216
SCF cycle converged after 10 iterations

Using DM_out to compute the final energy and forces
No. of atoms with KB's overlaping orbs in proc 0. Max # of overlaps:       4      34

siesta: E_KS(eV) =             -900.6053

siesta: Atomic forces (eV/Ang):
----------------------------------------
   Tot   -0.038893   -0.000271   -0.000029
----------------------------------------
   Max    1.367474
   Res    0.554508    sqrt( Sum f_i^2 / 3N )
----------------------------------------
   Max    1.367474    constrained

Stress tensor Voigt[x,y,z,yz,xz,xy] (kbar):      -19.50       -0.43       -0.15       -0.02        0.14       -0.27
(Free)E + p*V (eV/cell)     -896.4971
Target enthalpy (eV/cell)     -900.6746

siesta: Stress tensor (static) (eV/Ang**3):
        -0.001869   -0.000202   -0.000012
        -0.000202   -0.000029   -0.000015
        -0.000012   -0.000015   -0.000022

siesta: Pressure (static):          1.02531870  kBar

siesta: Stress tensor (total) (eV/Ang**3):
        -0.012168   -0.000167    0.000087
        -0.000167   -0.000271   -0.000012
         0.000087   -0.000012   -0.000094

siesta: Pressure (total):          6.69319317  kBar

siesta: Temp_ion =   13810.980 K

                     ====================================
                        Begin MD step =     10
                     ====================================

outcell: Unit cell vectors (Ang):
       10.000000    0.000000    0.000000
        0.000000   10.000000    0.000000
        0.000000    0.000000   10.000000

outcell: Cell vector modules (Ang)   :   10.000000   10.000000   10.000000
outcell: Cell angles (23,13,12) (deg):     90.0000     90.0000     90.0000
outcell: Cell volume (Ang**3)        :   1000.0000
Gamma-point calculation with multiply-connected orbital pairs
Gamma-point calculation with multiply-connected orbital pairs
Folding of H and S implicitly performed
Folding of H and S implicitly performed
<dSpData1D:S at geom step 10
  <sparsity:sparsity for geom step 10
    nrows_g=36 nrows=36 sparsity=.9877 nnzs=1280, refcount: 7>
  <dData1D:(new from dSpData1D) n=1280, refcount: 1>
refcount: 1>
new_DM -- step:    10
Re-using DM from previous geometries...
Number of DMs in history: 1
 DM extrapolation coefficients: 
1   1.00000
New DM after history re-use:
<dSpData2D:SpM extrapolated using coords
  <sparsity:sparsity for geom step 10
    nrows_g=36 nrows=36 sparsity=.9877 nnzs=1280, refcount: 9>
  <dData2D:(temp array for extrapolation) n=1280 m=1, refcount: 1>
refcount: 1>
No. of atoms with KB's overlaping orbs in proc 0. Max # of overlaps:       4      34
New grid distribution:   1
           1       1:   45    1:   45    1:   45

InitMesh: MESH =    90 x    90 x    90 =      729000
InitMesh: (bp) =    45 x    45 x    45 =       91125
InitMesh: Mesh cutoff (required, used) =   200.000   223.865 Ry
ExtMesh (bp) on 0 =   117 x   117 x   117 =     1601613
PhiOnMesh: Number of (b)points on node 0 =                91125
PhiOnMesh: nlist on node 0 =               451327

        iscf     Eharris(eV)        E_KS(eV)     FreeEng(eV)     dDmax    Ef(eV) dHmax(eV)
   scf:    1     -900.721055     -900.588518     -900.657819  0.737523 -6.833540  0.218311
   scf:    2     -900.541336     -900.574253     -900.642409  0.104099 -6.671877  0.322046
   scf:    3     -900.594761     -900.587710     -900.656891  0.062184 -6.751607  0.082855
   scf:    4     -900.587143     -900.589212     -900.658490  0.048446 -6.741630  0.025463
   scf:    5     -900.587869     -900.589217     -900.658508  0.029921 -6.734420  0.026351
   scf:    6     -900.589650     -900.589475     -900.658785  0.007445 -6.736861  0.014635
   scf:    7     -900.589579     -900.589572     -900.658886  0.009881 -6.739431  0.001228
   scf:    8     -900.589571     -900.589572     -900.658886  0.000498 -6.739458  0.001215
   scf:    9     -900.589571     -900.589572     -900.658886  0.000888 -6.739074  0.000785
   scf:   10     -900.589572     -900.589572     -900.658886  0.000126 -6.739013  0.000687

SCF Convergence by DM+H criterion
max |DM_out - DM_in|         :     0.0001264407
max |H_out - H_in|      (eV) :     0.0006872845
SCF cycle converged after 10 iterations

Using DM_out to compute the final energy and forces
No. of atoms with KB's overlaping orbs in proc 0. Max # of overlaps:       4      34

siesta: E_KS(eV) =             -900.5896

siesta: Atomic forces (eV/Ang):
----------------------------------------
   Tot   -0.000362   -0.000322   -0.000181
----------------------------------------
   Max    0.945313
   Res    0.432408    sqrt( Sum f_i^2 / 3N )
----------------------------------------
   Max    0.945313    constrained

Stress tensor Voigt[x,y,z,yz,xz,xy] (kbar):      -19.40       -0.51       -0.33       -0.14       -0.06       -0.36
(Free)E + p*V (eV/cell)     -896.4486
Target enthalpy (eV/cell)     -900.6589

siesta: Stress tensor (static) (eV/Ang**3):
        -0.001782   -0.000238   -0.000143
        -0.000238   -0.000077   -0.000092
        -0.000143   -0.000092   -0.000139

siesta: Pressure (static):          1.06669982  kBar

siesta: Stress tensor (total) (eV/Ang**3):
        -0.012106   -0.000227   -0.000038
        -0.000227   -0.000321   -0.000084
        -0.000037   -0.000084   -0.000204

siesta: Pressure (total):          6.74572296  kBar

siesta: Temp_ion =   13783.299 K

                     ====================================
                        Begin MD step =     11
                     ====================================

outcell: Unit cell vectors (Ang):
       10.000000    0.000000    0.000000
        0.000000   10.000000    0.000000
        0.000000    0.000000   10.000000

outcell: Cell vector modules (Ang)   :   10.000000   10.000000   10.000000
outcell: Cell angles (23,13,12) (deg):     90.0000     90.0000     90.0000
outcell: Cell volume (Ang**3)        :   1000.0000
Gamma-point calculation with multiply-connected orbital pairs
Gamma-point calculation with multiply-connected orbital pairs
Folding of H and S implicitly performed
Folding of H and S implicitly performed
<dSpData1D:S at geom step 11
  <sparsity:sparsity for geom step 11
    nrows_g=36 nrows=36 sparsity=.9877 nnzs=1280, refcount: 7>
  <dData1D:(new from dSpData1D) n=1280, refcount: 1>
refcount: 1>
new_DM -- step:    11
Re-using DM from previous geometries...
Number of DMs in history: 1
 DM extrapolation coefficients: 
1   1.00000
New DM after history re-use:
<dSpData2D:SpM extrapolated using coords
  <sparsity:sparsity for geom step 11
    nrows_g=36 nrows=36 sparsity=.9877 nnzs=1280, refcount: 9>
  <dData2D:(temp array for extrapolation) n=1280 m=1, refcount: 1>
refcount: 1>
No. of atoms with KB's overlaping orbs in proc 0. Max # of overlaps:       4      34
New grid distribution:   1
           1       1:   45    1:   45    1:   45

InitMesh: MESH =    90 x    90 x    90 =      729000
InitMesh: (bp) =    45 x    45 x    45 =       91125
InitMesh: Mesh cutoff (required, used) =   200.000   223.865 Ry
ExtMesh (bp) on 0 =   117 x   117 x   117 =     1601613
PhiOnMesh: Number of (b)points on node 0 =                91125
PhiOnMesh: nlist on node 0 =               451257

        iscf     Eharris(eV)        E_KS(eV)     FreeEng(eV)     dDmax    Ef(eV) dHmax(eV)
   scf:    1     -900.605904     -900.553863     -900.623118  1.001279 -6.755532  0.101406
   scf:    2     -900.363227     -900.494400     -900.558652  0.185669 -6.807305  0.360885
   scf:    3     -900.566540     -900.553750     -900.623008  0.149319 -6.767654  0.066046
   scf:    4     -900.550403     -900.553872     -900.623084  0.041267 -6.784118  0.045767
   scf:    5     -900.555062     -900.554670     -900.623967  0.013490 -6.781990  0.033970
   scf:    6     -900.554738     -900.554720     -900.624017  0.020158 -6.791274  0.014983
   scf:    7     -900.554515     -900.554626     -900.623911  0.002920 -6.790215  0.015606
   scf:    8     -900.554765     -900.554819     -900.624133  0.010424 -6.787147  0.002250
   scf:    9     -900.554822     -900.554822     -900.624135  0.001545 -6.787456  0.001170
   scf:   10     -900.554822     -900.554822     -900.624135  0.000435 -6.787786  0.001502
   scf:   11     -900.554822     -900.554822     -900.624135  0.000087 -6.787867  0.001031
   scf:   12     -900.554822     -900.554822     -900.624135  0.000162 -6.787886  0.000841

SCF Convergence by DM+H criterion
max |DM_out - DM_in|         :     0.0001617114
max |H_out - H_in|      (eV) :     0.0008412721
SCF cycle converged after 12 iterations

Using DM_out to compute the final energy and forces
No. of atoms with KB's overlaping orbs in proc 0. Max # of overlaps:       4      34

siesta: E_KS(eV) =             -900.5548

siesta: Atomic forces (eV/Ang):
----------------------------------------
   Tot   -0.004690   -0.000553    0.000032
----------------------------------------
   Max    0.497157
   Res    0.231675    sqrt( Sum f_i^2 / 3N )
----------------------------------------
   Max    0.497157    constrained

Stress tensor Voigt[x,y,z,yz,xz,xy] (kbar):      -18.80       -0.51       -0.31       -0.13        0.03       -0.22
(Free)E + p*V (eV/cell)     -896.5422
Target enthalpy (eV/cell)     -900.6241

siesta: Stress tensor (static) (eV/Ang**3):
        -0.001457   -0.000128   -0.000095
        -0.000128   -0.000063   -0.000078
        -0.000095   -0.000078   -0.000113

siesta: Pressure (static):          0.87239947  kBar

siesta: Stress tensor (total) (eV/Ang**3):
        -0.011736   -0.000135    0.000016
        -0.000135   -0.000317   -0.000080
         0.000016   -0.000080   -0.000193

siesta: Pressure (total):          6.54004028  kBar

siesta: Temp_ion =   13686.010 K

                     ====================================
                        Begin MD step =     12
                     ====================================

outcell: Unit cell vectors (Ang):
       10.000000    0.000000    0.000000
        0.000000   10.000000    0.000000
        0.000000    0.000000   10.000000

outcell: Cell vector modules (Ang)   :   10.000000   10.000000   10.000000
outcell: Cell angles (23,13,12) (deg):     90.0000     90.0000     90.0000
outcell: Cell volume (Ang**3)        :   1000.0000
Gamma-point calculation with multiply-connected orbital pairs
Gamma-point calculation with multiply-connected orbital pairs
Folding of H and S implicitly performed
Folding of H and S implicitly performed
<dSpData1D:S at geom step 12
  <sparsity:sparsity for geom step 12
    nrows_g=36 nrows=36 sparsity=.9954 nnzs=1290, refcount: 7>
  <dData1D:(new from dSpData1D) n=1290, refcount: 1>
refcount: 1>
new_DM -- step:    12
Re-using DM from previous geometries...
Number of DMs in history: 1
 DM extrapolation coefficients: 
1   1.00000
New DM after history re-use:
<dSpData2D:SpM extrapolated using coords
  <sparsity:sparsity for geom step 12
    nrows_g=36 nrows=36 sparsity=.9954 nnzs=1290, refcount: 9>
  <dData2D:(temp array for extrapolation) n=1290 m=1, refcount: 1>
refcount: 1>
Note: For starting DM, Qtot, Tr[D*S] =         14.00000000         13.97301405
No. of atoms with KB's overlaping orbs in proc 0. Max # of overlaps:       4      35
New grid distribution:   1
           1       1:   45    1:   45    1:   45

InitMesh: MESH =    90 x    90 x    90 =      729000
InitMesh: (bp) =    45 x    45 x    45 =       91125
InitMesh: Mesh cutoff (required, used) =   200.000   223.865 Ry
ExtMesh (bp) on 0 =   117 x   117 x   117 =     1601613
PhiOnMesh: Number of (b)points on node 0 =                91125
PhiOnMesh: nlist on node 0 =               451160

        iscf     Eharris(eV)        E_KS(eV)     FreeEng(eV)     dDmax    Ef(eV) dHmax(eV)
   scf:    1     -900.379861     -900.450675     -900.519681  1.203705 -6.700571  0.458345
   scf:    2     -899.553471     -900.172929     -900.221735  0.381551 -6.937336  1.425943
   scf:    3     -900.521097     -900.451408     -900.520429  0.298676 -6.756589  0.243795
   scf:    4     -900.239294     -900.395542     -900.458823  0.225254 -6.851783  0.190286
   scf:    5     -900.390439     -900.393005     -900.456049  0.012799 -6.863038  0.215215
   scf:    6     -900.478058     -900.451839     -900.520543  0.128168 -6.844345  0.062885
   scf:    7     -900.434904     -900.452822     -900.521876  0.097885 -6.852360  0.066986
   scf:    8     -900.458169     -900.456978     -900.526292  0.037619 -6.835554  0.011096
   scf:    9     -900.457121     -900.457098     -900.526404  0.007292 -6.838433  0.002674
   scf:   10     -900.457085     -900.457097     -900.526397  0.002646 -6.837806  0.003296
   scf:   11     -900.457095     -900.457100     -900.526406  0.001953 -6.838480  0.002179
   scf:   12     -900.457101     -900.457100     -900.526406  0.000304 -6.838783  0.001073
   scf:   13     -900.457100     -900.457100     -900.526406  0.000197 -6.838721  0.000841

SCF Convergence by DM+H criterion
max |DM_out - DM_in|         :     0.0001965468
max |H_out - H_in|      (eV) :     0.0008408767
SCF cycle converged after 13 iterations

Using DM_out to compute the final energy and forces
No. of atoms with KB's overlaping orbs in proc 0. Max # of overlaps:       4      35

siesta: E_KS(eV) =             -900.4571

siesta: Atomic forces (eV/Ang):
----------------------------------------
   Tot    0.000971   -0.000663   -0.000550
----------------------------------------
   Max    0.577676
   Res    0.249153    sqrt( Sum f_i^2 / 3N )
----------------------------------------
   Max    0.577676    constrained

Stress tensor Voigt[x,y,z,yz,xz,xy] (kbar):      -18.87       -0.39       -0.03        0.05        0.32        0.12
(Free)E + p*V (eV/cell)     -896.5135
Target enthalpy (eV/cell)     -900.5264

siesta: Stress tensor (static) (eV/Ang**3):
        -0.001611    0.000094    0.000086
         0.000094    0.000023    0.000048
         0.000086    0.000048    0.000086

siesta: Pressure (static):          0.80186996  kBar

siesta: Stress tensor (total) (eV/Ang**3):
        -0.011778    0.000075    0.000198
         0.000075   -0.000244    0.000031
         0.000198    0.000031   -0.000017

siesta: Pressure (total):          6.42950609  kBar

siesta: Temp_ion =   13418.372 K

                     ====================================
                        Begin MD step =     13
                     ====================================

outcell: Unit cell vectors (Ang):
       10.000000    0.000000    0.000000
        0.000000   10.000000    0.000000
        0.000000    0.000000   10.000000

outcell: Cell vector modules (Ang)   :   10.000000   10.000000   10.000000
outcell: Cell angles (23,13,12) (deg):     90.0000     90.0000     90.0000
outcell: Cell volume (Ang**3)        :   1000.0000
Gamma-point calculation with multiply-connected orbital pairs
Gamma-point calculation with multiply-connected orbital pairs
Folding of H and S implicitly performed
Folding of H and S implicitly performed
<dSpData1D:S at geom step 13
  <sparsity:sparsity for geom step 13
    nrows_g=36 nrows=36 sparsity=.9954 nnzs=1290, refcount: 7>
  <dData1D:(new from dSpData1D) n=1290, refcount: 1>
refcount: 1>
new_DM -- step:    13
Re-using DM from previous geometries...
Number of DMs in history: 1
 DM extrapolation coefficients: 
1   1.00000
New DM after history re-use:
<dSpData2D:SpM extrapolated using coords
  <sparsity:sparsity for geom step 13
    nrows_g=36 nrows=36 sparsity=.9954 nnzs=1290, refcount: 9>
  <dData2D:(temp array for extrapolation) n=1290 m=1, refcount: 1>
refcount: 1>
Note: For starting DM, Qtot, Tr[D*S] =         14.00000000         13.95961333
No. of atoms with KB's overlaping orbs in proc 0. Max # of overlaps:       4      35
New grid distribution:   1
           1       1:   45    1:   45    1:   45

InitMesh: MESH =    90 x    90 x    90 =      729000
InitMesh: (bp) =    45 x    45 x    45 =       91125
InitMesh: Mesh cutoff (required, used) =   200.000   223.865 Ry
ExtMesh (bp) on 0 =   117 x   117 x   117 =     1601613
PhiOnMesh: Number of (b)points on node 0 =                91125
PhiOnMesh: nlist on node 0 =               451139

        iscf     Eharris(eV)        E_KS(eV)     FreeEng(eV)     dDmax    Ef(eV) dHmax(eV)
   scf:    1     -899.942027     -900.198055     -900.265563  1.376396 -6.705101  0.740734
   scf:    2     -897.852889     -899.492342     -899.506577  0.593855 -7.016862  2.549158
   scf:    3     -900.411903     -900.198917     -900.266907  0.417651 -6.772485  0.348788
   scf:    4     -900.192487     -900.195754     -900.263511  0.006928 -6.771455  0.358277
   scf:    5     -899.347623     -899.980853     -900.023826  0.438449 -6.905072  0.416229
   scf:    6     -900.157384     -900.074803     -900.128235  0.072088 -6.882627  0.289119
   scf:    7     -899.244660     -900.012741     -900.064345  0.566993 -6.890244  0.337581
   scf:    8     -899.763568     -899.894577     -899.934082  0.077561 -6.886129  0.420593
   scf:    9     -900.327706     -900.169197     -900.234733  0.230402 -6.892432  0.181712
   scf:   10     -899.467741     -899.880005     -899.917878  0.239877 -6.874956  0.401075
   scf:   11     -900.308173     -900.213246     -900.282117  0.329118 -6.878857  0.065440
   scf:   12     -900.162743     -900.209897     -900.277489  0.140914 -6.880619  0.080352
   scf:   13     -900.222868     -900.222594     -900.291842  0.074891 -6.879792  0.003715
   scf:   14     -900.221484     -900.222241     -900.291550  0.013047 -6.879835  0.011924
   scf:   15     -900.222586     -900.222596     -900.291849  0.012966 -6.879843  0.002539
   scf:   16     -900.222595     -900.222595     -900.291846  0.000307 -6.879972  0.002501
   scf:   17     -900.222588     -900.222594     -900.291854  0.001394 -6.879889  0.002215
   scf:   18     -900.222590     -900.222592     -900.291855  0.000378 -6.880206  0.002263
   scf:   19     -900.222591     -900.222591     -900.291855  0.000120 -6.880369  0.001814
   scf:   20     -900.222592     -900.222591     -900.291855  0.000175 -6.880394  0.001390
   scf:   21     -900.222591     -900.222591     -900.291855  0.000206 -6.880456  0.001011
   scf:   22     -900.222592     -900.222592     -900.291855  0.000135 -6.880594  0.000886

SCF Convergence by DM+H criterion
max |DM_out - DM_in|         :     0.0001350489
max |H_out - H_in|      (eV) :     0.0008864691
SCF cycle converged after 22 iterations

Using DM_out to compute the final energy and forces
No. of atoms with KB's overlaping orbs in proc 0. Max # of overlaps:       4      35

siesta: E_KS(eV) =             -900.2226

siesta: Atomic forces (eV/Ang):
----------------------------------------
   Tot    0.037776    0.000574    0.000731
----------------------------------------
   Max    1.544143
   Res    0.643746    sqrt( Sum f_i^2 / 3N )
----------------------------------------
   Max    1.544143    constrained

Stress tensor Voigt[x,y,z,yz,xz,xy] (kbar):      -20.33       -0.26        0.34        0.28        0.54        0.46
(Free)E + p*V (eV/cell)     -896.0778
Target enthalpy (eV/cell)     -900.2919

siesta: Stress tensor (static) (eV/Ang**3):
        -0.002739    0.000312    0.000229
         0.000312    0.000111    0.000196
         0.000229    0.000196    0.000317

siesta: Pressure (static):          1.23416401  kBar

siesta: Stress tensor (total) (eV/Ang**3):
        -0.012691    0.000285    0.000339
         0.000286   -0.000161    0.000176
         0.000339    0.000176    0.000210

siesta: Pressure (total):          6.75174809  kBar

siesta: Temp_ion =   12787.013 K

                     ====================================
                        Begin MD step =     14
                     ====================================

outcell: Unit cell vectors (Ang):
       10.000000    0.000000    0.000000
        0.000000   10.000000    0.000000
        0.000000    0.000000   10.000000

outcell: Cell vector modules (Ang)   :   10.000000   10.000000   10.000000
outcell: Cell angles (23,13,12) (deg):     90.0000     90.0000     90.0000
outcell: Cell volume (Ang**3)        :   1000.0000
<dSpData1D:S at geom step 14
  <sparsity:sparsity for geom step 14
    nrows_g=36 nrows=36 sparsity=1.0000 nnzs=1296, refcount: 7>
  <dData1D:(new from dSpData1D) n=1296, refcount: 1>
refcount: 1>
new_DM -- step:    14
Re-using DM from previous geometries...
Number of DMs in history: 1
 DM extrapolation coefficients: 
1   1.00000
New DM after history re-use:
<dSpData2D:SpM extrapolated using coords
  <sparsity:sparsity for geom step 14
    nrows_g=36 nrows=36 sparsity=1.0000 nnzs=1296, refcount: 9>
  <dData2D:(temp array for extrapolation) n=1296 m=1, refcount: 1>
refcount: 1>
Note: For starting DM, Qtot, Tr[D*S] =         14.00000000         13.94780718
No. of atoms with KB's overlaping orbs in proc 0. Max # of overlaps:       4      36
New grid distribution:   1
           1       1:   45    1:   45    1:   45

InitMesh: MESH =    90 x    90 x    90 =      729000
InitMesh: (bp) =    45 x    45 x    45 =       91125
InitMesh: Mesh cutoff (required, used) =   200.000   223.865 Ry
ExtMesh (bp) on 0 =   117 x   117 x   117 =     1601613
PhiOnMesh: Number of (b)points on node 0 =                91125
PhiOnMesh: nlist on node 0 =               451074

        iscf     Eharris(eV)        E_KS(eV)     FreeEng(eV)     dDmax    Ef(eV) dHmax(eV)
   scf:    1     -899.100400     -899.704207     -899.764606  1.021140 -6.739921  0.930149
   scf:    2     -896.244803     -898.745220     -898.745912  0.696585 -7.011589  3.350440
   scf:    3     -900.055518     -899.705614     -899.770649  0.383534 -6.797653  0.389273
   scf:    4     -899.711813     -899.708729     -899.773987  0.003602 -6.798242  0.381516
   scf:    5     -898.112218     -899.341883     -899.347778  0.597805 -6.916397  0.734748
   scf:    6     -899.485223     -899.415228     -899.434844  0.036274 -6.886536  0.614479
   scf:    7     -899.268733     -899.343519     -899.349927  0.035519 -6.899499  0.748397
   scf:    8     -897.122166     -899.221126     -899.236943  0.896192 -6.882921  0.688320
   scf:    9     -899.242394     -899.231785     -899.249136  0.004559 -6.885105  0.676590
   scf:   10     -899.939831     -899.662416     -899.724086  0.248375 -6.884060  0.333018
   scf:   11     -899.729326     -899.697322     -899.761641  0.034011 -6.884281  0.286348
   scf:   12     -898.774720     -899.543087     -899.581231  0.501026 -6.888177  0.467030
   scf:   13     -899.676812     -899.612876     -899.659928  0.048997 -6.878783  0.375940
   scf:   14     -899.807487     -899.724267     -899.784738  0.106973 -6.879091  0.210446
   scf:   15     -899.724749     -899.724508     -899.785008  0.000351 -6.879110  0.210032
   scf:   16     -899.780380     -899.784934     -899.853992  0.160990 -6.879411  0.032264
   scf:   17     -899.652861     -899.742153     -899.804792  0.139323 -6.885728  0.175342
   scf:   18     -899.791701     -899.770769     -899.837084  0.058042 -6.881485  0.104035
   scf:   19     -899.709241     -899.743544     -899.806357  0.054260 -6.877787  0.178824
   scf:   20     -899.785963     -899.785005     -899.853944  0.126242 -6.890205  0.009929
   scf:   21     -899.784946     -899.784997     -899.854008  0.004321 -6.891315  0.008565
   scf:   22     -899.785020     -899.785032     -899.853985  0.006082 -6.892251  0.008700
   scf:   23     -899.784982     -899.785019     -899.854025  0.003288 -6.893085  0.006036
   scf:   24     -899.784994     -899.785008     -899.854026  0.001413 -6.893196  0.004545
   scf:   25     -899.785034     -899.785023     -899.854028  0.001646 -6.894088  0.004693
   scf:   26     -899.784988     -899.785007     -899.854030  0.001120 -6.894431  0.003902
   scf:   27     -899.785014     -899.785011     -899.854031  0.001331 -6.894813  0.001518
   scf:   28     -899.785009     -899.785010     -899.854031  0.000177 -6.894825  0.001283
   scf:   29     -899.785011     -899.785010     -899.854031  0.000098 -6.894863  0.001036
   scf:   30     -899.785015     -899.785013     -899.854031  0.000565 -6.895386  0.000578
   scf:   31     -899.785013     -899.785013     -899.854031  0.000072 -6.895308  0.000559

SCF Convergence by DM+H criterion
max |DM_out - DM_in|         :     0.0000720729
max |H_out - H_in|      (eV) :     0.0005589716
SCF cycle converged after 31 iterations

Using DM_out to compute the final energy and forces
No. of atoms with KB's overlaping orbs in proc 0. Max # of overlaps:       4      36

siesta: E_KS(eV) =             -899.7850

siesta: Atomic forces (eV/Ang):
----------------------------------------
   Tot   -0.058516    0.000551    0.001337
----------------------------------------
   Max    2.743945
   Res    1.055008    sqrt( Sum f_i^2 / 3N )
----------------------------------------
   Max    2.743945    constrained

[...]
   Tot    0.009014   -0.006974    0.001351
----------------------------------------
   Max    9.728935
   Res    4.392797    sqrt( Sum f_i^2 / 3N )
----------------------------------------
   Max    9.728935    constrained

Stress tensor Voigt[x,y,z,yz,xz,xy] (kbar):      -14.09      -18.41       -0.68        1.94       -1.29       -0.14
(Free)E + p*V (eV/cell)     -890.5913
Target enthalpy (eV/cell)     -897.4948

siesta: Stress tensor (static) (eV/Ang**3):
        -0.004820    0.001525   -0.000502
         0.001525   -0.010184    0.001525
        -0.000502    0.001525   -0.000278

siesta: Pressure (static):          8.16159194  kBar

siesta: Stress tensor (total) (eV/Ang**3):
        -0.008795   -0.000085   -0.000806
        -0.000085   -0.011491    0.001210
        -0.000806    0.001210   -0.000424

siesta: Pressure (total):         11.06064372  kBar

siesta: Temp_ion =    6761.660 K

                     ====================================
                        Begin MD step =    191
                     ====================================

outcell: Unit cell vectors (Ang):
       10.000000    0.000000    0.000000
        0.000000   10.000000    0.000000
        0.000000    0.000000   10.000000

outcell: Cell vector modules (Ang)   :   10.000000   10.000000   10.000000
outcell: Cell angles (23,13,12) (deg):     90.0000     90.0000     90.0000
outcell: Cell volume (Ang**3)        :   1000.0000
<dSpData1D:S at geom step 191
  <sparsity:sparsity for geom step 191
    nrows_g=36 nrows=36 sparsity=1.0000 nnzs=1296, refcount: 7>
  <dData1D:(new from dSpData1D) n=1296, refcount: 1>
refcount: 1>
new_DM -- step:   191
Re-using DM from previous geometries...
Number of DMs in history: 1
 DM extrapolation coefficients: 
1   1.00000
New DM after history re-use:
<dSpData2D:SpM extrapolated using coords
  <sparsity:sparsity for geom step 191
    nrows_g=36 nrows=36 sparsity=1.0000 nnzs=1296, refcount: 9>
  <dData2D:(temp array for extrapolation) n=1296 m=1, refcount: 1>
refcount: 1>
Note: For starting DM, Qtot, Tr[D*S] =         14.00000000         13.97582823
No. of atoms with KB's overlaping orbs in proc 0. Max # of overlaps:       4      36
New grid distribution:   1
           1       1:   45    1:   45    1:   45

InitMesh: MESH =    90 x    90 x    90 =      729000
InitMesh: (bp) =    45 x    45 x    45 =       91125
InitMesh: Mesh cutoff (required, used) =   200.000   223.865 Ry
ExtMesh (bp) on 0 =   117 x   117 x   117 =     1601613
PhiOnMesh: Number of (b)points on node 0 =                91125
PhiOnMesh: nlist on node 0 =               451130

        iscf     Eharris(eV)        E_KS(eV)     FreeEng(eV)     dDmax    Ef(eV) dHmax(eV)
   scf:    1     -856.482590     -884.488357     -884.488364  3.463853 -4.900569 17.275670
   scf:    2     -783.715828     -865.930682     -865.930682  7.446815-10.809956 43.811848
   scf:    3     -904.044271     -887.423588     -887.423588  2.767769 -6.353536 19.713195
   scf:    4     -895.796332     -891.908313     -891.908313  1.406144 -5.333914 12.032154
   scf:    5     -895.479711     -893.768847     -893.768895  1.022374 -5.227129  9.325366
   scf:    6     -870.731128     -892.106665     -892.158687  6.277156 -5.221618 10.525295
   scf:    7     -877.523425     -885.447941     -885.448343  0.439275 -5.145311 15.812679
   scf:    8     -887.005272     -886.234707     -886.242332  0.480241 -5.196222 15.139408
   scf:    9     -865.242937     -891.690143     -891.690143  8.267356 -5.435662 12.644161
   scf:   10     -841.739333     -885.088536     -885.088537  3.488308 -5.286163 18.404472
   scf:   11     -879.760537     -882.529696     -882.529696  2.731798 -4.408037 21.471482
   scf:   12     -885.810932     -884.219253     -884.219253  1.107350 -5.029239 19.866213
   scf:   13     -864.187244     -891.486795     -891.486795  2.113552 -4.748617 11.975669
   scf:   14     -891.930846     -891.710789     -891.710789  0.147221 -4.633759 11.367855
   scf:   15     -893.557259     -892.648713     -892.648713  0.599757 -4.756234  9.988554
   scf:   16     -899.270382     -897.715588     -897.729056  3.485172 -4.979491  2.356944
   scf:   17     -858.711981     -885.797424     -885.797594  3.629974 -5.056785 15.906130
   scf:   18     -884.149444     -884.982583     -884.982585  2.000877 -4.993000 16.982522
   scf:   19     -885.658627     -885.322526     -885.322536  0.782134 -5.044414 16.466328
   scf:   20     -888.290410     -896.926030     -896.930140  3.186692 -4.922667  4.815820
   scf:   21     -887.762537     -893.003317     -893.003317  2.416638 -4.733545  9.617499
   scf:   22     -893.461565     -893.233622     -893.233622  0.178051 -4.740869  9.382503
   scf:   23     -898.154052     -895.977133     -895.978016  1.672367 -4.877427  6.434963
   scf:   24     -893.641835     -897.201226     -897.220339  3.353786 -4.932657  4.011050
   scf:   25     -896.806086     -897.704254     -897.715602  1.840800 -4.942298  2.352699
   scf:   26     -887.879304     -893.953799     -893.953799  2.589287 -4.654401  9.054249
   scf:   27     -893.282088     -893.620703     -893.620703  0.209575 -4.628541  9.368040
   scf:   28     -892.892557     -893.259045     -893.259045  0.076633 -4.478138  9.971041
   scf:   29     -842.778783     -884.763891     -884.763892  3.956791 -5.106634 17.222629
   scf:   30     -867.304445     -892.325451     -892.325451  4.382031 -4.040629 11.099797
   scf:   31     -895.376168     -893.898845     -893.898845  0.690686 -4.703679  8.983704
   scf:   32     -865.970266     -890.848927     -890.858752  6.947812 -4.917511 12.216776
   scf:   33     -883.905573     -887.550687     -887.553707  0.474686 -5.008900 14.576950
   scf:   34     -883.429602     -895.923254     -895.924446  5.859760 -4.886677  6.491010
   scf:   35     -893.738955     -894.882558     -894.882587  0.497331 -4.784818  7.922545
   scf:   36     -847.219035     -885.211638     -885.211646  4.200871 -5.117723 16.531044
   scf:   37     -878.799027     -895.167888     -895.168016  4.096393 -4.833456  7.521616
   scf:   38     -884.003408     -895.117820     -895.142244  4.675269 -5.015417  7.759608
   scf:   39     -896.164006     -897.713182     -897.726710  2.655378 -4.917265  2.400277
   scf:   40     -897.400128     -897.770644     -897.788196  0.963951 -4.938635  1.704016
   scf:   41     -897.137701     -897.502489     -897.521614  0.454482 -4.942626  3.066012
   scf:   42     -897.401630     -897.796907     -897.811680  1.359680 -4.970292  1.720928
   scf:   43     -889.169265     -894.628553     -894.628575  2.522474 -4.873134  8.003136
   scf:   44     -893.732291     -894.186091     -894.186091  0.093502 -4.725991  8.729613
   scf:   45     -896.486937     -895.392997     -895.393083  0.858494 -4.709324  7.572719
   scf:   46     -891.318360     -893.467097     -893.467097  0.992194 -4.402590  9.954083
   scf:   47     -897.562636     -895.685569     -895.685931  1.041925 -4.785203  7.059295
   scf:   48     -845.347957     -884.079224     -884.079224  2.449093 -5.505521 19.969282
   scf:   49     -886.086964     -885.127837     -885.127839  4.323959 -5.163411 16.922506
   scf:   50     -877.196545     -894.828845     -894.828869  3.688205 -4.888971  7.779902
   scf:   51     -896.214377     -897.717622     -897.732686  3.282426 -4.999661  1.905993
   scf:   52     -887.072856     -893.820922     -893.841361  1.935291 -5.067988  9.241898
   scf:   53     -886.111901     -895.796313     -895.796949  4.706505 -4.924312  6.594479
   scf:   54     -894.295342     -895.071439     -895.071490  0.345425 -4.885880  7.537348
   scf:   55     -897.649236     -896.478942     -896.481960  0.730465 -4.961579  5.540582
   scf:   56     -892.639370     -894.725547     -894.725570  0.995337 -4.912904  7.846545
   scf:   57     -894.663630     -894.694622     -894.694642  0.013340 -4.910437  7.882350
   scf:   58     -897.909176     -897.877527     -897.904156  2.573179 -5.031099  0.665809
   scf:   59     -883.766502     -892.978530     -892.978530  3.422079 -4.772897  9.849602
   scf:   60     -892.976904     -892.977755     -892.977755  0.073822 -4.742543  9.875169
   scf:   61     -855.766892     -888.462568     -888.475951  7.022698 -5.152706 13.780841
   scf:   62     -885.778908     -896.320390     -896.327724  5.609939 -5.032630  5.683230
   scf:   63     -892.687902     -894.643203     -894.643224  0.666099 -4.904915  7.924541
   scf:   64     -895.372375     -895.012846     -895.013000  0.133876 -4.947650  7.457776
   scf:   65     -894.187441     -894.606180     -894.606198  0.158506 -4.907579  7.951244
   scf:   66     -894.493700     -894.550045     -894.550057  0.017840 -4.902317  8.017477
   scf:   67     -894.765352     -894.658098     -894.658120  0.048831 -4.909154  7.897616
   scf:   68     -845.350292     -884.770337     -884.770337  2.081642 -5.550378 18.145541
   scf:   69     -893.307137     -889.371186     -889.382251  4.766911 -5.101697 13.179499
   scf:   70     -873.311594     -893.303182     -893.303182  6.736022 -4.657788  9.625137
   scf:   71     -896.291517     -894.865482     -894.865530  0.578144 -4.956156  7.607646
   scf:   72     -889.384547     -892.257994     -892.257994  0.948510 -4.096883 11.246536
   scf:   73     -898.728586     -895.903206     -895.903826  1.728020 -4.897861  6.524046
   scf:   74     -850.175421     -885.402476     -885.402482  3.807508 -5.201243 16.336267
   scf:   75     -886.828962     -886.126059     -886.126657  1.347909 -5.140089 15.437421
   scf:   76     -877.647104     -894.837217     -894.837255  5.892617 -4.900850  7.744922
   scf:   77     -894.895278     -897.555972     -897.586840  3.235422 -5.061366  2.934653
   scf:   78     -893.895181     -896.912956     -896.921688  2.157039 -5.012736  4.662516
   scf:   79     -894.057111     -895.616691     -895.617622  0.761481 -4.972215  6.725557
   scf:   80     -896.613512     -896.131231     -896.134106  0.270401 -4.993446  6.006176
   scf:   81     -896.112729     -896.121986     -896.124789  0.004772 -4.993312  6.020272
   scf:   82     -892.105328     -894.263980     -894.263981  0.847420 -4.858084  8.387016
   scf:   83     -894.024882     -894.144908     -894.144909  0.110956 -4.888501  8.455600
   scf:   84     -845.990631     -885.251402     -885.251402  3.601772 -5.414084 16.951321
   scf:   85     -886.347722     -885.811733     -885.811909  2.326592 -5.190209 15.676051
   scf:   86     -876.399149     -894.586474     -894.586487  5.724289 -4.919060  7.959203
   scf:   87     -898.892802     -897.702064     -897.722713  1.946353 -5.060630  2.319164
   scf:   88     -890.311295     -895.780995     -895.814509  2.588096 -5.089703  6.792615
   scf:   89     -886.871774     -895.596387     -895.597349  4.078178 -4.978177  6.741234
   scf:   90     -896.770139     -896.206203     -896.210322  0.295055 -5.004087  5.883924
   scf:   91     -896.340140     -896.273516     -896.277867  0.042245 -5.005372  5.780703
   scf:   92     -892.395649     -894.487017     -894.487024  0.840042 -4.912241  8.071819
   scf:   93     -894.306602     -894.397062     -894.397066  0.027155 -4.899820  8.184944
   scf:   94     -894.227443     -894.312463     -894.312465  0.014421 -4.879900  8.309495
   scf:   95     -840.342389     -883.447903     -883.447903  2.395709 -5.496003 20.797417
   scf:   96     -885.108837     -884.293096     -884.293096  2.235520 -5.329410 18.673364
   scf:   97     -899.322488     -892.989161     -893.013373  4.813185 -5.055663 10.151415
   scf:   98     -890.910872     -891.974805     -891.997860  0.254335 -5.063906 11.091024
   scf:   99     -882.785998     -895.306439     -895.307125  5.673364 -4.996890  7.045294
   scf:  100     -894.647199     -894.981270     -894.981417  0.117745 -4.969681  7.457979
   scf:  101     -894.643409     -894.813381     -894.813425  0.037811 -4.937246  7.699985
   scf:  102     -895.758988     -895.295982     -895.296305  0.235843 -4.944810  7.165129
   scf:  103     -897.149763     -896.278870     -896.287340  0.247580 -5.079747  5.652523
   scf:  104     -891.722718     -894.192746     -894.192747  0.678333 -4.883643  8.409358
   scf:  105     -841.551348     -883.896896     -883.896896  1.657000 -5.403957 19.670113
   scf:  106     -886.015418     -884.986313     -884.986313  3.825761 -5.188941 16.949674
   scf:  107     -878.316443     -895.085015     -895.085385  3.452267 -4.989214  7.303977
   scf:  108     -897.388118     -896.324520     -896.330323  0.650599 -5.000394  5.737117
   scf:  109     -894.386185     -895.406195     -895.407104  0.503093 -4.993574  6.935205
   scf:  110     -898.393219     -897.162461     -897.173467  1.152942 -4.994855  4.180770
   scf:  111     -897.049335     -897.106418     -897.116615  0.036696 -4.990438  4.316569
   scf:  112     -855.276026     -885.807654     -885.807697  4.601485 -5.070213 15.833293
   scf:  113     -889.239033     -897.059469     -897.069321  4.608741 -4.987354  4.425591
   scf:  114     -898.121384     -897.720024     -897.739227  0.716364 -5.015075  2.310681
   scf:  115     -896.968097     -897.390072     -897.404914  0.460955 -5.018836  3.543631
   scf:  116     -881.840574     -893.544595     -893.572889  3.792046 -5.079323  9.514036
   scf:  117     -888.733702     -891.261465     -891.282268  0.578706 -5.091298 11.623114
   scf:  118     -897.741092     -894.857742     -894.886522  0.889148 -5.040898  8.109714
   scf:  119     -891.143273     -893.104015     -893.130482  0.323444 -5.112644  9.957822
   scf:  120     -899.438411     -897.346655     -897.375800  1.824366 -5.059647  3.646473
   scf:  121     -897.828189     -897.879211     -897.906030  1.125940 -5.074446  0.671940
   scf:  122     -894.660064     -896.837475     -896.874608  1.318580 -5.137000  4.834378
   scf:  123     -897.757288     -897.881392     -897.910897  1.407024 -5.088450  0.755831
   scf:  124     -897.887942     -897.888714     -897.923554  0.082475 -5.131942  0.429323
   scf:  125     -897.867742     -897.889279     -897.934201  0.376545 -5.266979  0.562163
   scf:  126     -897.020328     -897.639810     -897.693315  0.555755 -5.351289  2.238904
   scf:  127     -897.911652     -897.898019     -897.948650  0.506835 -5.330208  0.066756
   scf:  128     -897.894562     -897.897789     -897.945173  0.116012 -5.333047  0.247377
   scf:  129     -897.897587     -897.898676     -897.948272  0.114280 -5.326086  0.043167
   scf:  130     -897.898077     -897.898481     -897.947947  0.039773 -5.326920  0.047240
   scf:  131     -897.897753     -897.898264     -897.948572  0.053373 -5.329601  0.062608
   scf:  132     -897.895725     -897.897164     -897.949267  0.038660 -5.334964  0.090960
   scf:  133     -897.897482     -897.897407     -897.949374  0.012001 -5.333091  0.044069
   scf:  134     -897.897214     -897.897313     -897.949400  0.003576 -5.331859  0.039938
   scf:  135     -897.897061     -897.897190     -897.949434  0.008048 -5.327079  0.037323
   scf:  136     -897.897365     -897.897282     -897.949457  0.015112 -5.322793  0.030625
   scf:  137     -897.896339     -897.896845     -897.949386  0.026852 -5.321784  0.045084
   scf:  138     -897.896904     -897.896875     -897.949377  0.001712 -5.321629  0.050386
   scf:  139     -897.897344     -897.897115     -897.949349  0.008468 -5.320945  0.057407
   scf:  140     -897.897095     -897.897105     -897.949351  0.000894 -5.321401  0.056036
   scf:  141     -897.897308     -897.897219     -897.949440  0.013045 -5.314422  0.030507
   scf:  142     -897.897223     -897.897221     -897.949440  0.000612 -5.314613  0.030089
   scf:  143     -897.897337     -897.897281     -897.949432  0.008751 -5.318778  0.035806
   scf:  144     -897.897386     -897.897334     -897.949432  0.003054 -5.319337  0.036673
   scf:  145     -897.897390     -897.897366     -897.949463  0.013090 -5.320662  0.029146
   scf:  146     -897.897257     -897.897312     -897.949473  0.002154 -5.321025  0.027640
   scf:  147     -897.896714     -897.897021     -897.949506  0.012497 -5.323209  0.017265
   scf:  148     -897.897065     -897.897048     -897.949527  0.007625 -5.320747  0.010806
   scf:  149     -897.897055     -897.897051     -897.949528  0.002890 -5.320852  0.009301
   scf:  150     -897.897079     -897.897066     -897.949527  0.006646 -5.321960  0.005179
SCF_NOT_CONV: SCF did not converge in maximum number of steps (required).
SCF_NOT_CONV: SCF did not converge in maximum number of steps (required).
Geom step, scf iteration, dmax:  191   150    0.000381
Geom step, scf iteration, dmax:  191   150    0.000381

timer: Elapsed wall time (sec) =    1462.939
timer: CPU execution times (sec):

Routine            Calls   Time/call    Tot.time        %
siesta                 1    7206.937    7206.937   100.00
Setup                  1       1.067       1.067     0.01
bands                  1       0.000       0.000     0.00
KSV_init               1       0.000       0.000     0.00
IterGeom             191      37.727    7205.870    99.99
state_init           191       0.001       0.257     0.00
hsparse              191       0.000       0.034     0.00
overlap              191       0.001       0.174     0.00
Setup_H0             191       0.303      57.882     0.80
naefs                381       0.000       0.010     0.00
MolMec               381       0.000       0.000     0.00
kinefsm              381       0.001       0.213     0.00
nlefsm               381       0.003       1.071     0.01
DHSCF_Init           191       0.297      56.817     0.79
DHSCF1               191       0.020       3.802     0.05
INITMESH             191       0.000       0.004     0.00
DHSCF2               191       0.278      53.014     0.74
REMESH               191       0.062      11.831     0.16
REORD              15355       0.005      83.898     1.16
PHION                191       0.162      31.000     0.43
COMM_BSC           25575       0.004     112.350     1.56
POISON              6442       0.352    2267.530    31.46
fft                12884       0.137    1759.902    24.42
IterSCF             5870       1.205    7073.396    98.15
setup_H             6061       1.165    7061.723    97.99
DHSCF               6251       1.141    7135.130    99.00
DHSCF3              6251       1.135    7096.723    98.47
rhoofd              6251       0.362    2262.795    31.40
XC                  6251       0.296    1851.018    25.68
GXC-CellXC          6251       0.280    1753.047    24.32
cellXC              6251       0.280    1752.784    24.32
vmat                6251       0.016      99.144     1.38
compute_dm          5870       0.002      10.501     0.15
diagon              5870       0.002      10.241     0.14
r-eigvec            5870       0.001       6.430     0.09
r-buildHS           5870       0.000       0.021     0.00
rdiag               5870       0.001       6.261     0.09
rdiag1              5870       0.000       0.065     0.00
rdiag2              5870       0.000       0.121     0.00
rdiag3              5870       0.000       0.704     0.01
rdiag4              5870       0.001       5.103     0.07
r-buildD            5870       0.000       2.930     0.04
MIXER               5680       0.000       0.255     0.00
PostSCF              190       0.391      74.210     1.03
DHSCF4               190       0.202      38.359     0.53
dfscf                190       0.163      31.016     0.43
overfsm              190       0.000       0.050     0.00
state_analysis       190       0.000       0.041     0.00
siesta_move          190       0.000       0.057     0.00
  
ABNORMAL_TERMINATION
ABNORMAL_TERMINATION
Stopping Program from Node:    0
Stopping Program from Node:    0

Program aborted. Backtrace:
#0  0x562d48276ecb in ???
#1  0x562d47f7ac29 in ???
#2  0x562d47e980d0 in ???
#3  0x7fa7c6229d8f in __libc_start_call_main
	at ../sysdeps/nptl/libc_start_call_main.h:58
#4  0x7fa7c6229e3f in __libc_start_main_impl
	at ../csu/libc-start.c:392
#5  0x562d47e98174 in ???
